ITEM: TIMESTEP
5
ITEM: NUMBER OF ATOMS
23328
ITEM: BOX BOUNDS pp pp pp
-15.08190489966774 15.08190489966774
-15.08190489966774 15.08190489966774
-15.08190489966774 15.08190489966774
ITEM: ATOMS type x y z
A 13.253161565339223 14.309438352510982 -14.873083510435137
A -11.021074297585022 -13.403849001277573 14.516927255285296
A 9.1547862731429994 -13.206204497200714 -13.225735235058643
A -14.419777907897972 9.0435289424457004 10.358590685620641
A 13.771996821061503 -11.616549552160935 14.780706197413432
A 14.167296026967493 -12.728923839491022 -10.878116922738007
A -14.920484492486711 14.715649797879855 -14.518194664113189
A -10.798813614333843 -14.576789439807111 13.10866189784408
A -11.22548003378351 -11.87805577923751 -12.036301435341022
A -14.136017069476821 -12.121044662936402 -13.861718612685381
A -12.256598995609046 -11.997082825687057 14.378053683849805
A -10.963752572756709 14.023439744118228 -14.57132280861417
A -9.2005643888148967 -13.834176320725152 14.228478260607858
A -5.7548862563609378 -13.90023639789548 -11.24913810463695
A -12.645211167622529 -10.682661053147411 -12.140219140019568
A -9.5736563743626597 -11.777023607985383 -11.48171135512958
A -8.9177819765739592 -14.673443837342392 12.746770197771717
A -12.059621103516877 -12.202257486249351 -13.730223476952938
A -10.549310671805626 -12.328572101520857 -11.368188443834903
A -13.056252647835933 -12.992622552512154 -12.090320829867595
A -7.7258109513347275 12.849852371990199 12.413142778132716
A -11.265969933545549 -10.371537282508328 13.551254075368959
A -10.687833630576327 -13.737214397755587 -14.481594902122289
A -4.0006190810055386 14.847751057922608 15.060854735102438
A -5.394309458970719 -13.878707993396288 -14.402144017861712
A -2.1043603356049387 -12.172414550503273 -8.0935058433476961
A -2.0634475388993279 -13.35390633030806 -14.233105463168563
A -6.0468786593941752 -15.073099767761773 -14.727826686388466
A 0.6566592367627887 14.19961828774783 13.298844415484556
A 1.1606983331106266 -13.320395261790024 12.35477027122074
A -3.0622868601541486 14.925552864646933 14.644034393749118
A -1.1209026015074215 11.98210599743414 -12.297392734413352
A -1.1751697731469946 13.876550740598379 13.168164779535893
A -2.4930712237787578 -14.820537046247132 -13.825382887916948
A -3.134347772557847 11.837111188435166 14.883795060650558
A -0.27299245528608979 -13.775679604654149 -13.686378351708264
A 2.9434359188710792 -13.537506936003567 13.024813415717432
A 3.0761968446917063 13.682417494837086 14.896670802342589
A -2.516716257728298 -13.954612001434159 -14.91458736569685
A 4.4630995974836454 12.106718069918394 -13.528952192714161
A 4.081224184945702 12.126447143357584 -12.527213760648783
A 5.1657423719310991 12.762306424459524 13.979029491450536
A 6.6314983687229256 13.860006704308653 -10.496361347948657
A 2.9857732639268848 10.833869256168537 -11.342523641130544
A 4.7339664858820498 11.327977698747052 14.783173941660385
A 7.4747027477714667 15.015643092426354 13.339606095981605
A 3.2448626847478019 -14.503374581454036 -9.5315486787042403
A 0.72078418204220407 13.759423827441953 -13.628131598650882
A 8.5715228210776004 12.929123168243336 12.564477364465041
A 7.0860608755759262 14.231644152604144 14.44146346151091
A 6.1663595633637733 -13.277785848956913 13.789381890864995
A 4.9856545045400544 14.22301182717708 14.773958053777585
A 8.1965840883079633 -13.602322121597453 14.201950634163174
A 7.1638542331555177 -13.743303793836384 -13.368526329198801
A 7.4183298783965697 -14.028337994379886 14.980585595411595
A 9.4256903901345712 14.729026576977528 13.501415829764451
A 11.639155976509464 14.42885361350791 10.747371028436021
A 8.5671515502273454 15.014269212597629 -12.935360705239324
A 8.5413122293276142 -11.812326903281917 -13.480264631890858
A 9.6436529694063804 -14.939843747330311 -12.769054941492403
A 12.907064383537232 -11.813437696037074 13.248241962316992
A 11.80275665447885 -10.97069381602153 13.61645022458687
A 8.9252498883036768 -13.37904294675962 -14.278089534533185
A 7.8606146320521058 -10.996246009227962 -13.275417392792797
A 13.8859356497682 -12.933002548034057 -13.896885302684748
A -14.40026766028932 13.419867151513774 14.373510062179639
A -14.605559346900767 -8.9508158039744323 13.909990706433586
A 9.238789160982142 -11.440422880865187 -9.9660987555720073
A -14.675806404213626 11.385121732441771 14.328437950016088
A 13.495234083588391 13.819637753086266 -12.875151533817361
A 14.860418403665539 -11.479638188417599 -14.993429514826207
A 13.923284477013794 -10.511846737663905 -14.668441237142172
A -13.594731121225948 -13.259221067863372 -13.710037537191223
A -13.492728250724729 -10.933098336851893 -14.608458859690741
A -14.293393265726614 -10.083582314083836 -14.025060954421139
A 12.879128066869701 -14.530488985989299 13.056364412408936
A -14.700087797689795 -7.3144574476544522 -12.328127866005737
A 13.97331678797304 -14.550120195866423 -12.883482587057086
A -10.454957624336641 -13.161007601735994 -13.506892078592031
A -12.477213949322092 -13.320918956125452 -13.758721064477674
A -7.9315013320239451 13.547776746084512 13.466095463944761
A -7.3781839817385242 -11.243514489298025 -14.8188572871862
A -12.52413152786108 -13.095170187941557 -10.021790354791285
A -12.650009186115938 -12.685864287028922 13.540517530812142
A -9.0068005783187512 -13.876795367965489 -12.780346850673753
A -9.6521538184484417 -10.8438558028081 -10.875387536723489
A -9.3767996504528188 -8.6200980577237978 -12.265992395257278
A -8.1006088388011435 -10.036123551637621 -14.912238883061978
A -6.2796546515451679 -11.476427411167998 -14.464075316203436
A -8.5696030124040252 -13.029812588309502 -14.599782493614857
A -4.155742534201698 -13.889022627917663 -10.091678514170248
A -7.9284014313408466 -13.785706386145929 -10.600218427295971
A -7.6128483084024925 -11.731223678806133 14.461202049699832
A -5.6205373668476577 14.611841060950432 12.980921159078385
A -10.568215744274504 -12.655856969680418 13.692830548527827
A -7.3678212594239945 -13.399444752860138 -14.383066297654683
A -5.4249080058043484 -14.572729519902158 13.772181798888752
A -7.1549444586639162 -14.697988054534191 -14.249863041840552
A -4.1059688563760703 -11.230678402160967 -13.141499810131412
A -7.9493356171123297 -13.945967591586772 12.617574623304641
A -2.4979947385769385 -10.888696707094965 -14.849235104591155
A -3.1781449899430383 -12.361909840260422 -11.69613372381993
A -0.036849922655828753 -12.80774828033061 14.896667554943894
A -4.5073943558434877 14.281351771225825 -11.878197321163237
A -2.6901602553661736 -9.7251421869051669 -14.867535476065315
A 0.57653477788989427 -10.581142924537946 -11.545864569586906
A 0.61651490537697751 -13.650093500886845 14.523807903103364
A 0.37271348080611438 -8.1730735217325385 -11.682698200608616
A -4.0111274715168719 14.562479553538376 12.947024829474138
A 0.4163325220812929 -14.665063185630272 13.192039137637938
A -2.1773029637350496 -9.4900447245015744 -10.560036985776936
A 0.84985628851553574 -15.057577698291951 -12.48906071827483
A 0.1857088419841883 14.675818669045084 12.492571149709516
A 2.6680943150182368 -14.16508251720435 -12.789713874122137
A 2.2113702659022167 -14.215303002705998 -14.773348064409133
A 3.8976284390311502 -13.881120791275988 -14.228940054782234
A 4.9955626528776609 -14.259039576889005 -12.529317656567843
A 2.8826936181973619 -12.263314618451291 -13.18764653513092
A 2.4066097963174471 -9.3692776183510524 -14.170052633764806
A 0.90508836872630427 -9.9143290745216746 14.182523210856203
A 9.7264021093298236 -9.7858517642646259 9.7348582425645986
A 1.7963109512457713 -9.9641777857399969 -11.860619339144204
A 2.1913571892484938 -11.850143222595181 -14.37971660714417
A 6.9930612365098161 -14.154262874944131 13.025140727750205
A 9.4681415072072337 -12.416832165090335 -14.046290030766253
A 10.158738383602344 -12.173830370758706 -12.617578746221142
A 6.2906278626472378 -13.750243012450268 -12.73847143721769
A 8.344055822255477 -9.2926545774119642 -11.869624698326092
A 7.2966912911129631 -10.388056502154782 -14.624222627024604
A 13.550163167168494 -8.4157885683969145 -12.894753054745307
A 3.1782064793275562 -13.567898583056735 -15.064175935284799
A 8.5238751723868003 -12.712178883409646 12.186911140547586
A 9.8683211715799573 -14.808865679730568 14.640061382065175
A 13.688423997477125 -12.194049000479735 -12.898207048243258
A 10.42993258447715 -11.008718362937508 12.421030213655783
A 7.6997411551071444 -11.768419941586663 -12.55408250442381
A 13.44405309736571 -14.672584444626517 -15.011533080539467
A 13.861376345633435 -14.83785156521839 13.760713310534154
A 15.057862838311081 -10.726275499872177 -12.263888847319343
A 12.296382351315845 -10.53795858605444 -12.750324194511512
A 15.013459845919149 13.44168707380538 12.433450988139764
A -13.578517059586314 -12.738495983970543 -8.8034535373595517
A 13.908433655814664 -11.317828421280643 -12.370932183098981
A -7.7898975192977247 -13.649435103949431 -11.5910628847432
A -14.310096086496817 -14.660689398640521 12.600942840943006
A -14.46877062610808 -11.256333074352746 13.10906421369506
A 13.171169004568096 -11.429147856123578 -10.860723738153892
A -9.5985439545914488 -11.828736171269327 -13.451632953827831
A -14.514850735928535 -11.044132876939193 -11.119666597840022
A -11.528668540264965 -10.821134117777731 -13.864245293753363
A 14.522111596589308 -8.7029633525249412 -12.764471512851474
A -6.6189185417410048 -9.5210306779070262 -12.68224354449376
A -13.901512970025882 -8.0278158925524536 13.116033869445033
A -7.9698165918756789 -9.3256625676511078 -11.231224661166001
A -13.208879466334334 -9.148814787961344 -14.018791848881927
A -10.979186379293189 -8.8784531871688817 -10.284399548272338
A -8.2915272520191916 -11.511681456169407 -12.229123491805669
A -7.3443935133836096 -9.5054150698722264 -14.444574050825885
A -10.941415994164929 -10.538493339003377 -11.995940732436901
A -9.15163492721212 -9.3097978188826751 -13.578580955242792
A -5.917352322903505 -13.373416085211396 -10.315931515753384
A -5.4416825899177637 -9.6838020708802102 14.677577799480227
A -6.875730131879294 -10.154969318129522 -11.525321183702383
A -5.8374669865173248 -13.330373379158623 12.804572383531085
A -4.275676284792775 -10.398759449128224 -9.635126175788514
A -2.4897233865300854 -12.909363415449816 -9.6243374783840867
A -4.5802895608751024 -9.1293398894350197 -13.197990537725127
A -3.3280315291244116 -11.921055279512162 14.895644574004166
A -4.9931156734848932 -10.658611944476238 14.670769950931268
A -5.5626214075126139 -12.805218562648241 -13.313850285272599
A -1.7611491525824072 -12.210548494299392 13.802196798698738
A -3.6181193330410446 -11.793124019067417 -10.82878164138052
A 0.47122458000269363 -9.8274465122726582 -12.265540975199633
A -2.8246344091909723 -14.676767660252651 -12.805784282103877
A -4.0108191989033317 -11.602555819056962 -11.91275074544115
A -2.3641115889705788 -12.810777243828442 14.458948772853226
A 2.8774806241208428 -9.7943608702841232 15.078992830279935
A 1.1252958172311163 -10.804310052814662 -14.874441174428664
A -3.4633317832877171 -12.039274793695894 13.225795598297481
A 0.54368784861694819 -12.482214172056922 -12.454822218441377
A 2.5065935585142638 12.891917926447316 11.016320504989583
A -0.62015313277494244 -10.36941733120168 -14.787149707347387
A 1.9517570817043026 -9.1898991355270123 13.725236278236274
A 3.8723952058248132 13.901997681755599 13.792356547932599
A 4.526158008431616 -14.028456133251963 10.098585364302682
A 5.2122686102736671 -14.488083926407084 11.87911262886292
A 0.67626573463682182 -9.5358498754764298 -15.050316401509313
A 1.3005620813704113 -12.530459280871248 -14.154065431019983
A -0.67758997609761207 -13.517777367058727 -12.768990281301191
A 5.0100385495266861 -8.1449686880399383 -13.137735791484154
A 1.2059453887050953 -12.921228839766256 -13.064637350857437
A 1.6874466360253189 -12.056612599889313 -13.297069237251307
A 3.4384610971131031 -10.648132287199388 -10.456914394362714
A 6.2117183510819851 -10.730183831409191 12.513921454186384
A 1.7642412772949423 -9.6202631371530476 14.874637505451949
A 6.875144616949024 -10.316404854385684 -11.832926298817295
A 3.8148080453676267 -10.58808475525246 -13.63213813847373
A 7.3358496716699051 -10.143335839478334 -12.764843189942866
A 5.1412275427288607 -8.8151759348409318 13.930599878490998
A 10.836852437999923 -10.874035270461633 -11.113457536033494
A 7.0479744398818083 -9.3268585915593594 -12.120776398574623
A 8.2409739287914796 -12.669020461024354 -13.963008807363236
A 7.4975801277317773 -9.4139169595545411 -13.738762261463592
A 6.6244365806190126 -7.6562551403768886 14.322546907712795
A 9.5572557008791623 -9.1265215831403257 -12.062997925808933
A -14.878049159883984 -11.072941855165448 14.333741174834723
A 11.809677706114854 -9.9675111085324701 13.784498484635204
A 10.991896874250127 -11.597047689251788 13.410274268211328
A 13.977350323653202 -13.440543945815968 11.172835120608802
A 14.041879268185729 -9.0225199653192742 -10.202642690397321
A 13.263625274430989 -13.504695650591952 -13.176455665110895
A 14.977483305162108 -10.397457426864879 -15.050954090788183
A -12.356082909811079 -13.665028807354748 -12.792072463495797
A -14.15305879880334 -8.5173065283604998 -11.887272437697934
A -14.963916019023427 14.423977144947697 -10.961879162207499
A 13.203778861740163 -9.6175542144943318 -13.02644315087001
A 14.663203507531644 -11.390814329398143 -11.494634767845822
A -13.91870371235437 -8.0725988687532553 12.100241942943459
A 12.903816978711301 -6.1897480467120882 14.389006488393417
A -15.025882991238557 -11.205319391228457 -9.5530126380886387
A -13.13673229526788 -7.413120363134591 14.951031107237998
A -8.5157362283607263 -10.071806789729125 -12.778154769365797
A -13.620534273484195 -10.714344661441491 -12.470036341046672
A 14.396566013608433 -7.1832747073221377 13.782301079730317
A -9.4254919052020636 -9.6472844668865356 -12.557911336869189
A -7.4382531236637117 -10.246816720408212 -8.5064611111293971
A -12.173195570427096 -5.9224904605362818 -14.534913838212919
A -10.741501937230566 -10.072921611949081 -14.105425821521173
A -10.141521687379671 -8.4836831818543281 -14.994013898709314
A -7.1646629807450077 -6.6015824043572824 -14.008161386397354
A -7.5101243244370606 -11.777356734005719 -12.885720695304796
A -2.6173223459777555 -12.454533854921525 -13.375604987195279
A -5.9086437229316955 -10.759221325327436 -15.061211396562852
A -4.3556148752030941 -6.892551362462374 -13.776691223467825
A -8.6695140786763929 -10.087931281054912 14.396393153500663
A -5.9809551225833522 -11.430631023327772 -12.79650339915662
A -1.0781573052486499 -10.882666275207146 -13.850792871880214
A -2.9548037001197573 -11.207187462764367 -13.24223733388375
A -1.3669476665604932 -8.857803409175947 -13.95606780275625
A -6.6808906809147262 -8.7570003877394686 -14.407689794897852
A -3.3722452380068471 -10.126185435855364 14.027655641377439
A -3.207111220906496 -13.049163125456301 -12.796691180828599
A -3.6526739789947764 -9.6482614696931481 -14.331106811956666
A 0.67659792477247871 -10.288189465768918 11.481227956863307
A -3.8382435761932769 -8.1239568591147524 13.437823691729172
A -2.9516442693697784 -13.832530093145738 -8.4900155347898085
A -0.75864980348443711 -4.1935877029534936 -14.647205024851194
A -0.70400740445364374 -12.972754296284023 -14.244810321760157
A -5.8322729260343094 -11.272687161389962 14.179922326212074
A -4.3441353877318063 -9.6834974819754773 14.29210023219658
A -4.1148543101512409 -9.2328602289447996 12.393855837772751
A -0.8902444356885012 -8.4752496289086992 14.3597784378676
A 0.037925101840303586 -13.99761524275112 11.195909049337256
A 1.2916386898590615 -9.7253388078837304 10.906596509338836
A 0.17050455903959721 -4.5683404318170062 -15.000876494305581
A -1.4887062737507009 -11.721446747149605 -13.479134696599356
A 0.5245729425425254 -3.6263222952589236 13.457251032557039
A 6.5008033169953192 -6.5220637504112551 -12.314080330522215
A 1.7253817944694887 -8.5622000322901783 -9.4880194757812006
A 1.4073345427882571 -8.6816665234569523 14.393609966509523
A 4.9222827812958849 -6.7698383954513881 13.465006301133947
A -1.8621857375181452 -7.0957739121122172 -12.275234289413106
A 4.0878895432920546 -13.303505409627988 12.589414307255971
A 3.5302153589036758 -9.2294533748945788 -11.977248757902901
A 1.5806374842756641 -8.2316844702115226 -12.767696706903202
A 9.4100106424036891 -7.2840260221232862 14.167911978716857
A 5.2362562587237065 -10.032881156056376 13.267788217976321
A 6.6548384179896134 -9.1075857688436521 -14.534680400472395
A 7.7261676562626418 -9.4321064705471365 -14.738655851392675
A 10.394404165480982 -8.1952057408405494 -12.553875437426871
A 6.3802231099411273 -9.9720839915676791 14.924103239491597
A 5.8346054648410073 -9.2309313594045594 13.276324019957059
A 14.11274074255695 -9.5942734159891074 14.528784559623306
A 9.2599191500449045 -8.5142435848563114 -12.903775831721621
A 9.4967763317654921 -5.9246542336831949 -14.313264499550824
A 12.392208400103822 -9.1589050526936227 14.721945716036682
A -14.2315785550733 -8.4723322389094573 14.760284013233521
A 10.660079583967303 -7.4776791795852589 13.827212816716457
A 12.4140968138486 -9.4203228099645102 -14.457401692368874
A 11.062657678560274 -9.8272753504214467 -11.390870471557127
A 12.117274763950872 -4.2710695102693412 9.8353239510310999
A 13.848916548152692 -12.774659794581513 13.169388166248002
A 12.595721793802712 -8.2393634862829526 -8.5407123347329694
A 14.537339032203137 -12.3832646597033 11.587734129837468
A 14.118045019312657 -10.456998846564314 12.287788756363106
A -12.895178934460176 -4.2461516678518061 -12.616801185919345
A 13.299452002822148 -8.8943557326092151 14.17006361420715
A -12.236639392725731 -7.0314735513850222 -14.514627023147105
A -11.836331670814742 -4.6125251918080332 -11.585334343084842
A 14.222709593337672 -6.278179988983446 14.324570688939099
A -14.656216834796499 -5.5245111661303241 -14.231365656380675
A -14.719294049850623 -4.9869707936762415 14.919612695941884
A -13.811450721876739 -10.304055467884504 12.857377917056997
A -13.140101954259835 -9.022804338651822 12.780314364956407
A -12.318876642841358 -4.7187666628051979 14.031623572838662
A -14.649151011749625 -8.6026035457258363 -14.414649116447867
A -11.573637803018878 -6.7629889974621422 14.922024577286336
A -9.004971466859212 -7.3002827354829991 -11.732349305060882
A -11.429221420001939 -9.6429009300315371 15.034597650738739
A -10.501640943658485 -7.548361674143969 -12.649923501437392
A -10.379706785133285 -9.9307206621400503 15.079076917203173
A -10.341618428525969 -8.3353653477539744 -12.050813606757613
A -6.6089105276937694 -8.4982531937335271 -12.918648851671602
A -4.4870764129406657 -9.7974885707065802 -14.879686114487701
A -9.8167233207134288 -9.3158057430565808 -14.51435093470772
A -7.5279853096587459 -5.2875180629946987 14.966114621741854
A -5.2850361284207343 -9.0074681359980673 -11.35158168449035
A -5.2195343999087012 -6.2352475003608454 -11.910789512545184
A -5.0834078557942854 -8.3577251056491288 -12.340270280830412
A -4.4236690506746479 -7.4551669708703923 -12.905298694598565
A -6.0741915975720762 -9.5827537791975601 -11.822097024641559
A -5.9782782868593882 -8.0391521304783566 -14.04463079320286
A -3.4217540327907487 -10.430199731539195 -14.92723251869157
A -5.0157631183776834 -6.5158486379705174 -10.655698817528101
A -2.5105802304558442 -12.206758000231209 -10.628845806821433
A -5.8857870317672223 -7.4034702077677021 -10.661046141542423
A -3.1581082942725485 -8.2821908607916868 -11.834123024889905
A -1.9839013630784292 -7.8364353018908623 -14.747006505195523
A 4.9674798246061433 -8.6752131490636888 -11.228131482647113
A 1.4722022661477243 -8.6755548747641189 -10.7952075399589
A -3.6863188259611537 -7.7802355569311477 14.650238739983061
A -0.19183560331389282 -7.6659827401637441 -13.229514166175008
A -1.9847474900148987 -6.881871214612258 -13.269813409246449
A -2.234622666894857 -9.5009027739531877 -13.991761021403567
A -0.12870956493757027 -8.3629507420509608 -14.28052288390875
A -0.26126880978642292 -4.6138315996789769 14.237431167809795
A 1.5103135036114317 -3.747544713617843 -13.068785508292768
A 2.724721870788235 -4.4774248080716497 -14.740386838601678
A 4.2064968660201343 -6.5894993971211262 -13.941747823327995
A 0.86411987218396902 -11.038259173561935 13.248603264264315
A 3.0589789060160286 -9.1162228539466117 -13.345971573383288
A 0.71895058369924136 -4.0412829248783781 14.370509280425726
A 4.4747222381836416 -9.9315642675931421 11.871523455859258
A 1.3322317797387333 -5.6900682806222287 13.831128786137398
A 1.5544431932851439 -7.5790475755144566 14.440977529090331
A 3.9798208676117364 -8.4469183488346147 -11.040669292931558
A 1.4624880989763922 -8.8389253184671013 -14.65504924782458
A 2.3590327488892573 -5.3620054240382169 14.838457410048418
A 6.435761900521288 -10.244490760230548 13.529760519766981
A 10.36566447160838 -5.2964182401548534 -14.005337242456424
A 9.6458430363998797 -5.4587366267273616 14.880251836659296
A 7.601372689980308 -7.6383916554457532 14.735983635583773
A 6.8671801098014242 -6.8124820246836046 -13.248132158537123
A 8.4959191613428313 -6.7938480548828482 -13.853239791689999
A 9.7554092852080299 -7.8534984861856243 -14.358347002177851
A 12.691013205095336 -8.0777949202081469 13.685630881322407
A 8.5567893579875705 -5.9975538707015792 -13.210755198724957
A 11.564770271321363 -8.7092331138731325 -13.095898551152034
A 9.7806237858112048 -9.1408878641713454 14.50167995471323
A 13.20003228724344 -5.7404082840045607 -13.845745216399425
A 6.2970994538256555 -7.2429874963566476 -14.125096693459549
A 8.3516654547228413 -5.7789832011345288 -14.256616990589107
A -14.513068882487374 -8.805877214000926 12.842290137738505
A 11.005968490535832 -4.9175642647524107 -13.068436719576203
A 12.133847848785512 -0.88453042399349058 -11.760627114948775
A 13.53396138541604 -9.5959642488395112 -11.230690189289904
A 14.464892190856421 -6.5978312114477893 -12.715612881985427
A -13.073554557835433 -5.5668623961897765 -12.486851536510763
A -14.557411414349698 -0.66155194734599632 -11.060773014981983
A -12.802654140024408 -7.5646869512332282 -13.054169643672511
A -15.056228931575253 -6.0263112751584238 14.979773756722304
A -11.546750725680022 -4.8331782216192005 11.535965328565911
A 12.318503274364755 -2.7888227206466656 -14.137359947228202
A 14.449373461397339 -3.8260172894305526 13.835301605023339
A -14.600044156144602 -4.9837347793649753 13.895899625574735
A 14.103050897581593 -4.975716354175745 13.125361585656375
A -13.779278079737699 -5.6298396997465723 -14.955055997296444
A -14.922728034018396 -6.7081419946685399 14.20661917264442
A -12.459948037395616 -6.7676898928064215 14.417944297548274
A -13.693136276945756 -6.1084265932132853 14.257334572687398
A -13.210760033256729 -5.8159163517910359 -10.804871528723124
A -13.587934772719642 -7.929280751435317 14.078284684709509
A -8.568797178695533 -9.194986188374541 -12.120580242571659
A -9.3580864523206078 -7.7081370160040192 -13.104218820821327
A -6.8788669500997646 0.56406713296641187 -11.919446846147824
A -4.2531980655599604 -5.8804212443994182 -10.130468350660323
A -10.234061306648 -5.2613220381179664 12.32479525563835
A -8.3929043125336111 -8.0720977519057975 -13.831160115494342
A -7.4360013899661697 -3.926539209863102 13.517678933408551
A -4.7232308544276282 -9.4631392430183823 -10.315312085426728
A -6.2756558600440098 -3.0242749988557316 10.286857787676865
A -5.4628439687798025 -8.8479982067241458 -13.673780089659823
A -7.6005601585270917 -5.5052999921272194 13.918099736976846
A -7.5829236462890552 -6.0256587377150534 -13.141879655287077
A -3.4239165659102038 -4.4830735807261153 -10.80804905997215
A -3.8115191898921399 -1.9761231464364546 -12.200551081628157
A -5.5820738373323149 -9.1967820752560385 -12.620032181837919
A -7.4631982806261865 -3.8113167144167424 -10.882204355319024
A -3.8678879036172993 -8.3069807100728408 -13.698036682950539
A -0.17804949530365766 -3.1497266880875854 12.773539645848594
A -1.8339975822346255 1.0343274806955316 -12.488054088795264
A -6.6173120197854995 -6.908479747543824 -7.2491677298772874
A -1.3883853138744637 -6.4672749968968724 14.529458927464615
A -1.2612068418244369 -1.5065791806480879 10.246421592658784
A -0.4990595523559902 -5.3583193819494186 15.046747692816183
A 1.773933753035289 -4.9518074933447016 -11.278621052267694
A -1.6589707015754416 -5.0070162095217885 -9.186352252284399
A 1.9951116773577189 -6.3069066490942269 -14.790968597275077
A 1.7801738393280069 -5.2779452781897964 -14.512642090293783
A 2.0629881016110314 -9.2336890404955625 -13.155168177656565
A 2.8457763185488818 -4.6545751364014913 14.189182458916516
A 2.381988534616184 -10.13042344317881 -11.021221896397984
A 1.6479356525237965 -5.9662903628607351 -12.932468662258833
A 4.9293492055649208 -3.4641993508075721 -14.610299540514237
A 3.1194473699347016 -7.2086463994396608 13.801168496499155
A 0.40583091566999169 -7.3765443915347717 13.909430153493847
A 3.3986373296971135 -6.0983260804254495 -13.255049545227243
A 5.3074237787055303 -7.5384852927923491 12.884118896545793
A 7.6059299326818914 -6.2803904734413951 -12.765411518625605
A 0.98045362156976823 -8.0625668747938075 -13.988046291551278
A 7.4046652276846494 -3.288788886485503 14.328968129326924
A 6.1926112797906185 -8.3286263545520072 13.700971490061171
A 8.1414655918004257 -2.4861935203376029 14.085625176626579
A 10.241766098326048 -6.8837117874661988 12.794501962196772
A 8.2877440971035732 -6.6975929221033299 14.306721811746542
A 11.806921559146323 -6.2235447939176183 -10.80203022509424
A 7.8870129328542031 -5.0804362734136213 -12.608870412132672
A 6.4680393122742981 -8.8891111364227005 12.2749431461684
A 3.9726234469615136 -6.4039138150855894 -14.952039217697969
A 15.011790013121708 -4.4435294903754521 -10.160860864898103
A 11.560991084612636 -2.9245027134048134 15.01655706469505
A 11.783371021457105 -2.8858622688964926 -13.078417989804315
A 13.602018317577382 -5.6382664309500043 13.864362868143267
A 14.045141359068792 -8.1625820898511492 11.870246708038504
A 10.096561070901259 -5.716547364350717 13.887306993316084
A -13.750698099979271 -4.6839168339288815 14.794915794524059
A 8.1843743555248984 -5.0512171942505475 -13.585284905673168
A 10.773330962343596 -11.681570419860829 -15.026898711040216
A 12.437737705549424 -7.4536075295568649 14.623111614625705
A 12.896369085337794 -12.059237777294626 -15.030537921341518
A -14.356279485140638 -5.1598425620389277 10.881717159295487
A 13.206183256663769 -3.7418199517161814 -10.967428820793183
A -12.834739272544033 -1.7773255207050664 11.395327198564186
A -10.018599098626467 -5.1352679970221775 -12.120116073338098
A -10.161599770056222 -3.6950063233848649 -9.0965671618044759
A -13.563406548226075 -3.5361135268786166 -10.401779297534667
A -9.7735153780325081 -1.5710846710633699 -12.366738905333369
A -14.019343398550136 -6.8552350469748955 14.899961069845538
A -11.285991546810992 -3.1113494556116272 -13.814004038574003
A -10.635792045442036 -6.9395952745247271 -14.683379984295556
A -10.435067648786251 -0.14711240185261473 -14.964481093875229
A -9.4846489693776128 -1.7830007504406458 14.316745144321734
A -10.249355110583723 -6.1350189321528941 -13.869706499025297
A -9.9478818414680532 -4.1189532540425953 -12.271428608718288
A -12.116203167506281 -3.8662821476483016 -13.134737069089452
A -9.9926910496525991 -4.0403214389878563 -13.812065615296829
A -7.5622857202458338 -8.4334357189047484 -11.731294207944549
A -8.820941151690711 -7.4207181464515619 10.607289089424256
A -4.9727935226334727 -3.6579836050038481 -12.447322886258117
A -6.5869216038548064 -3.1704248575104312 11.850751116626451
A -5.6388713158229962 -1.8071766291138873 12.997701464505319
A -8.2401648634413469 -4.5258759799033106 -11.426849937925496
A -6.8239068988532967 -7.7328672311786439 14.582419178602921
A -8.5671999504560965 -3.8660510180631498 -14.014433031371514
A -8.0315279172894822 -3.5377392316815723 -12.079491103615979
A -5.3988154477532806 -6.0967554665295136 -13.873027557977515
A -2.0302948676619645 -2.8321345721754905 -14.126969805394548
A -6.7955852456280148 -5.1104047620066035 -13.270173648914762
A -4.3520225006981255 -3.1146217461841257 -14.522061845691409
A -3.3728204839069997 -12.042571513099498 -12.690769192800756
A -5.1429222889685589 -0.75312419862530666 12.156437397543712
A -3.0045215266716849 -0.16906690614516232 12.677217148284367
A -1.3760494090036677 -0.55937888162178351 -14.744713616431421
A -4.7756703098962419 -7.3812462512461741 -11.118777839405054
A -3.273668169983309 -7.7974081010524916 -14.573959855430278
A -0.6650261978240104 -5.6862463350620285 14.024027511303746
A 2.827917221502827 0.23552683730903823 -13.044478987137127
A -2.5145093524864151 -5.2523366281578836 -10.909596551468571
A -0.48320176775370555 -3.6627152622086987 13.946782951314674
A -0.2281295306419211 -3.4149949729960252 14.942024186798381
A 1.0821853519465188 -4.4826636551130097 -13.658569005548141
A 2.1656485870567734 -3.6898162586421428 -9.0721061439028716
A -1.0657865761050906 -8.2734947317315459 -14.813960400617601
A 2.6269252764087319 -5.8165932763260813 13.958050726157236
A 2.5337462946282563 0.76079308511327171 -13.850684380849849
A 3.9498823829760856 -5.0179368525691874 13.955255001789048
A 0.40207392632706346 -8.4269038843018951 -12.822584764767129
A 5.4239143579660318 -1.5695751704894934 -11.505792851282708
A 5.8421917018784786 -4.0316185538733613 14.452320113107413
A 2.4373267812803849 -6.1363928356674062 -13.684210013574127
A 4.0711715971347857 -4.7833949871704196 -13.120801713398281
A 5.8431951072479436 -6.7664451881227174 13.922744474520709
A 2.8364916362373616 -5.0453217119663867 -13.604858963091447
A 5.9523130364169985 -4.6382107531687105 -13.160548270838619
A 4.5759140203199919 -0.90882167512173873 14.9126821728571
A 12.832905695402527 -5.6103500896895451 -12.793561202762215
A 6.375435422350809 -2.743447817121861 -14.922664609108951
A 10.608216114706464 -1.5431960874413408 -11.985625507992818
A 6.8257398497252835 -0.40577814520694261 13.46610146233137