ITEM: TIMESTEP
0
ITEM: NUMBER OF ATOMS
23328
ITEM: BOX BOUNDS pp pp pp
-15.08190489966774 15.08190489966774
-15.08190489966774 15.08190489966774
-15.08190489966774 15.08190489966774
ITEM: ATOMS type x y z
A 14.550533395804781 -14.224343477597712 14.880182685062357
A -13.601187787324996 -13.755666178371005 -14.081743263693404
A -14.736427890982858 -14.17637483157179 -13.984679349293822
A -13.649068734658501 13.05738620743648 13.889055032848646
A -13.975203208316465 -13.45656827693456 -14.961118117607768
A -11.731751958469024 -13.513054615588825 14.416057400002936
A -13.217176902165935 -14.360298443449947 -14.798730306658316
A -12.646351979981885 15.03956247137115 14.877828370100568
A -11.406082600720799 -13.541298776829834 -13.500744346313471
A -10.310347971146598 -13.171749599931761 -14.552034118139701
A -11.611577191330014 -13.828281012814593 -12.551059455920631
A -10.548201546106922 -13.528488971314404 -12.600462141081007
A -9.6746491718021819 -14.964462613161409 -14.521430419691121
A -8.5434141008998914 -13.202343345220322 -14.967474749667128
A -8.7820119401012526 -12.331569676371602 -13.649312925566967
A -10.237996221819314 -13.04521165987895 -13.456828224845445
A -8.2244367060873458 14.772141170445945 -14.878913007301177
A -7.5397321918305087 -11.594173322491724 -14.621954024541676
A -8.375742907118001 -13.467800315250516 -13.957167932681585
A -9.3325654416646913 -13.170263276526107 -13.954692692201876
A -6.9280089131087301 -14.472407898818135 13.529851602761795
A -7.5656975588606024 -13.684177285503015 -14.785457156881462
A -8.6318371871538382 -14.242228800068618 -14.602373660451752
A -4.6888521508394998 -14.433809331829121 -12.963295093900369
A -4.9502134247591147 14.76479045531531 -14.480235236676368
A -4.1178483268561088 -13.276842801126245 -14.819442485144192
A -3.9881702692762619 14.990053067326196 -12.730115487146318
A -6.5899638432029608 13.740018520196507 -14.039436682610001
A -1.830884398600142 -14.143148252186197 -14.84318565844416
A -0.32418857742217366 -13.821201451174705 -14.776288865012221
A -2.0836518206269656 -13.576742318886586 -13.881004691591714
A -1.7514103505910348 15.016291148461626 -14.674529133189649
A -0.77919470392419254 -14.725300111020429 -14.374987871529116
A -0.34950637026555614 14.806236274069393 -13.234514655079117
A -1.432098185903226 -14.781693844492434 -13.535755321329146
A -0.93409346666197401 -14.00902869909307 -12.919011939519562
A 0.18524671664182896 -14.781449643787266 -14.720140767367928
A 1.1123324669181287 -13.51793311022702 -14.695753078068051
A 1.1771035871449862 -14.676283219440361 -13.772324374460396
A 2.4671938216324465 14.32850572752157 -14.825150711626874
A 2.6635972333924269 -14.998455625696179 -13.470487237705679
A 3.6694179518685726 -14.426479950767773 15.011999558165741
A 3.2496928471753308 -14.283534992459016 -12.594929747182025
A 3.5765116989480137 14.728028484599431 -14.957753862951726
A 3.8493384286388781 13.043933249027383 -14.641218730241967
A 6.0489370649674488 -12.86773960534911 15.005214346777219
A 4.852704098936627 -13.859143913211092 -13.558229732167304
A 5.4228537411223732 14.120752903509953 -13.790481539868948
A 7.1115051806363194 -14.770549382838983 14.859062850970394
A 7.6188693329002604 -14.207870896917735 -14.54521206209191
A 5.3940062554785584 -14.477225919068623 -14.281845103324441
A 6.1711492818647686 14.907816595869537 -14.778777595693541
A 7.087744833609273 14.353740540870421 -14.163399601545708
A 8.1258727236589312 15.081637159256685 -14.237530563386553
A 6.1854034857093598 14.8127315398877 -13.678324800544543
A 8.4043735755778197 14.928759625665256 -11.982163706983037
A 9.0559680125699664 14.070326563857659 14.736824000283066
A 9.504147906305727 -14.295348197891848 -14.559283651241042
A 9.9092638383898866 -13.309898653258248 -13.116355844486563
A 9.8266622959134935 15.009570299906535 -14.014519100670871
A 10.402683977755952 -14.476956034461189 13.957062998606233
A 11.05004977853684 -13.67914675754502 14.580982027362372
A 9.3448539834537065 -12.684124170033479 -13.751888331100616
A 10.362774365233159 -14.264725939966073 -13.614665618751054
A 12.017026969452656 -14.265119229769317 14.333243816057946
A 13.167955444713558 -14.204242637574286 -14.17880463319417
A 12.296626140306067 -14.794002941764868 -14.369487288947303
A 12.48478591799055 14.534070518410537 15.005438831170018
A 14.961354099939683 13.8889842790663 -14.812165758206502
A -14.975320460360543 -13.368756438969038 -15.054332000702519
A 13.859132167004333 -13.44338302860416 -13.516017695436487
A 14.423735193755379 -13.093271514274267 -14.390075743675812
A -14.538914940852115 -12.694802729112846 -14.248986476837542
A -14.025631392768956 -10.291083671241113 -14.237743892423502
A 14.815220832189247 -9.8897487624411333 -13.680164070184421
A 14.897115760675581 -13.213219138573153 -13.50515437352915
A -12.770591298506066 -11.699598051453387 -14.564908660968678
A -12.830612236592192 -11.453835290379974 14.362996073687563
A -12.247383317964724 -10.280948029640909 -13.208185603917164
A -12.23044996223854 -11.63598319033817 -13.358202296076561
A -12.821401084950727 -13.438202810169424 -14.907902396371391
A -9.5636287960025061 -11.791692580367361 14.426984515842731
A -11.72670093243898 -12.658704898005311 -12.848717036536071
A -9.989911496936891 -13.352392343187317 14.636005484121373
A -10.028667846922835 -12.07360658377085 -14.230354769091774
A -8.5678927903688216 -11.717141995138848 14.940314136861176
A -10.014733386846128 -11.81736254917212 -12.968102427181371
A -8.3388064013898671 -10.620886466577307 -13.670368742602435
A -6.807816005055666 -10.846818159162467 14.81319511643991
A -8.0145277444346146 -12.521080947070761 -14.289970820892073
A -8.347514256653696 -13.556626916415249 -12.058712860071854
A -7.4388368290284381 -12.886754584271179 -13.38128663601692
A -6.2605198017350361 -12.933769361045183 -14.121938099806616
A -6.4092822207690938 -13.340751947042651 15.047155497555645
A -6.8185607710487712 -12.066582014627881 -13.567905938717296
A -5.4245985240047823 -13.618980696338157 -13.608941741222994
A -3.9095436501869969 14.931278811671575 -13.917736130551258
A -5.2288222114335499 -12.673134506543796 -14.184901708582824
A -4.9941607634618297 -11.259333828245797 -13.14064739109793
A -3.0390589865933904 -12.753713779623491 -14.202242980152159
A -1.3865825332525081 -12.523877805422739 -14.442111377499099
A -2.7491002533942686 -13.656954242773423 -14.625064111891456
A -1.1264581771030011 -10.901114958127467 -13.211230038432399
A -2.8699211217269851 -12.737195038161564 -12.92303788111427
A -0.97580461065733182 -12.189813074565471 -13.467313607486263
A -0.0076086836333990283 -12.426043396947465 -13.696901715096164
A 0.73084824273748772 -13.101416039196783 -13.4917934044805
A -0.21228593861806594 -12.680947164354645 -12.735144519975718
A -0.19848694954147564 -13.324390356783592 14.442953631584295
A 2.6638020919650973 -13.46066950054092 14.331540623295961
A -0.1381387448370249 -13.655079156222376 -13.751629868654062
A 0.22952804009494118 -12.881799919606404 -14.798757309901667
A 2.5918515152529999 -14.747617871179033 14.851298325031939
A 3.3343165499085536 -13.039415294752821 -14.018640223579967
A 1.5709054316243991 -13.735627752307169 -13.833624708543367
A 3.6095890929714267 -14.002729800728996 -13.706504416054569
A 5.4110191151869005 -13.435797864814171 -14.364205159262022
A 4.6607051229118523 -12.763418335322791 -13.738067808695911
A 1.7637924362180406 -11.247509046520626 -13.779086740181079
A 6.0753482864256503 -13.879031434771358 -13.429034564773307
A 5.1727741240328529 -12.131842805775246 13.110041783467469
A 5.8351157821664792 -11.78024232181215 -13.25246751974813
A 6.0613554730865511 -12.218121838180265 -14.369485045796026
A 6.5154340033386688 -14.350724935079658 -14.273434701989943
A 7.94848184326045 -14.007275370248617 -13.291307820891856
A 7.6067222919317405 -10.748698461780476 -13.696862828535902
A 5.8603258924201542 -12.367628941237097 -12.409998833816541
A 8.1493480360289432 -12.507045370413563 -13.823146568478014
A 9.5471973679892876 -13.273771425070777 -14.768514464190929
A 8.3101644328701809 -11.430387374702811 -14.059842262544381
A 7.3985796615385313 -12.469183051191385 -11.783370232630791
A 9.6565166352717711 -11.944020036991098 14.03459792469663
A 8.5753879916483022 -12.481797348420054 -15.031522413656001
A 12.846111094528865 -14.045329326468378 14.87789903716679
A 10.480855353836677 -12.94412038517769 15.005986258171008
A 11.854587517899299 -13.864493824941375 -14.905815980153985
A 13.459071110663269 -12.629080154463928 -13.944371876545725
A 13.705988896981939 -12.550893576254497 13.880238351735567
A 12.714713649671644 -10.648607085711474 -14.345646778688007
A 12.583240534248668 -13.264095360697819 -13.82929743716358
A 14.19330077976411 -13.135211097853379 14.548989494030652
A 14.665601858382669 -11.328577884631429 -13.340970733317405
A 13.023715726968625 -11.624683211599697 -14.13429344481165
A 14.811924201137039 -12.171262445047436 -13.929914527175818
A -13.958300595071227 -11.47105998051539 14.69626067050585
A -14.491091980660061 -10.571772879527776 14.870550395348571
A 14.949938769519447 -10.406582083610898 -12.832962280183596
A -14.649508490660089 -10.785638209988424 -13.581544406714803
A -13.120861252248186 -10.543560533452254 -13.888969278517974
A -12.090840483793039 -11.004263965848159 -14.205807658413569
A -14.317045600768294 -9.5853768435897617 -13.577456733373662
A -11.344968225812893 -10.616231983672373 -13.578667572158436
A -11.463508868252633 -11.747255163908626 -14.485487930816452
A -11.076832228871536 -9.6140889687732027 -13.346728952009334
A -10.608551845990306 -10.410023186482741 -14.781525544383021
A -9.0878049639575842 -11.069369016766375 -12.109292367612092
A -9.1691420955986107 -12.46002167005182 -14.709361259314733
A -8.8254485946434951 -10.874261678500515 -14.734570504585529
A -9.7690824464547514 -11.253618120575245 -14.75144755257587
A -8.0414010020516873 -11.655533347574336 -13.618513187669272
A -7.9586370413596459 -12.282537935596858 -12.773372341822872
A -6.7520718890657117 -10.617819448607987 -14.123699252227606
A -7.9146340221406142 -9.8792146444743931 -14.22353945594117
A -5.8044006857163257 -12.297927338428668 -13.158844565836148
A -5.472304435343049 -11.707064003852967 -13.972554389333114
A -4.7076913877333855 -11.055800086798758 -14.169477625362488
A -4.8619173633062234 -10.27181651721625 14.97215469727292
A -4.055190365530235 -10.398396232063702 -13.371416322635463
A -4.0567207042827302 -12.191224733730092 -14.306080296113549
A -2.7613043300978908 -10.931260777653725 -14.563805164381053
A -4.4800980618281834 -10.54781579757794 -12.468363006412774
A -2.5027332114677527 -11.811895633938768 -11.803712728083497
A -2.0727028838419383 -12.587598305080993 -13.665406731808908
A -1.4279654336310903 -11.511357995225541 -14.343595801494684
A -2.2977937701886466 -11.543490051625602 -13.670254018316795
A -0.36667509136008453 -11.521311774594865 -14.024873738278414
A -0.33530927544650313 -11.391563678812831 15.059778651826527
A -0.72239512953519525 -9.6102366143567455 -14.725789892130976
A -1.0823607865837135 -10.690436278692514 -15.014227422862172
A 0.30216920081378934 -10.407080959632435 -14.856673081045635
A 1.1550903621986177 -12.232364878727662 -15.057527282167777
A 0.9504217539195905 -9.5867947536327005 -14.562522535085831
A 0.75883673450826439 -11.409423096387224 -14.471694732964394
A 2.6752407446552309 -13.797517716525673 -14.479755771511062
A 2.4813923164362754 -12.070048096532187 14.518331649419114
A 2.3988071920128333 -10.035342120555139 14.881922447093986
A 1.7785068335771061 -11.36432176095007 15.031712871929463
A 2.779251503006638 -11.013088765776899 -13.588112744100952
A 2.5959904686610771 -11.917701845327311 -14.270325756513026
A 5.1933357563456735 -10.589834546445182 -14.486507262297875
A 3.9989898129447412 -12.366667337490181 -14.58764920578399
A 3.3940592074678997 -12.012190026513501 -13.6555207528542
A 5.6805976141457259 -10.787607750923604 -13.45725578081697
A 7.4888184282224977 -10.138789606382055 -12.874153144378576
A 4.7448433631167966 -11.833212718556933 -13.310226582515801
A 5.4572377586031209 -11.411590055670901 -12.313403298413817
A 8.6300491817091327 -10.468907045308066 -13.985551332500963
A 7.2357570062898775 -9.8402858822135038 -13.904400777027053
A 6.9633246087735614 -8.8253790543562953 -13.751068149640338
A 7.9568320952265301 -10.658789292627903 -11.877885712267855
A 8.2697418585546298 -11.200608528563439 -12.976388271231286
A 9.5321280914879907 -10.034577076021883 -14.199150722591741
A 8.8929830989088519 -10.302541498420508 -12.964185041900656
A 9.6133398759564059 -11.159796975534769 -14.383596600138535
A 10.364899825262063 -10.472188656822889 -14.572226857739864
A 12.269046488782855 -9.8714152060291234 -13.508020977179584
A 11.625463870942923 -10.572844318227562 -13.88331419875573
A 11.343741571650456 -11.922406577490136 -13.631712887550558
A 12.598519832654988 -12.439966667816917 -14.56311978652754
A 12.911241272194587 -11.315543040328384 14.856566759545744
A 11.956337904486118 -11.412103427499103 -12.718201189398824
A 14.220301171071808 -10.93388690929954 -14.161614527621557
A 13.951172291850868 -11.781190241815642 -14.836763355142105
A 14.683194992137034 -10.01869899988454 -14.737294562751746
A 13.904541354647911 -10.293218124177136 -13.373402445451465
A 13.949176275878854 -9.3026794273673676 -13.810306271511935
A -14.908655335236688 -9.1890574969812633 -14.292526976367157
A -12.237842399082908 -9.1493520241098842 -14.798153205513891
A 14.46299622089791 -8.3507439886956103 -13.828461481412724
A 14.903859072242277 -8.9103406666556086 -12.467575013828878
A -12.087785732635533 -10.790890774515214 14.863684020556407
A -11.849449907186825 -9.9533031445764184 -14.340373301836227
A -12.827430122324051 -9.5321007385987322 -13.832940083374368
A -12.78323630790587 -9.9976079041350516 -14.833820010190887
A -10.949705882923535 -10.412430062792625 14.16174030943813
A -10.133526938582257 -9.6412415690019486 -12.977663931204448
A -12.180227956619136 -9.3227312103753572 -12.650737274869316
A -10.963877537441912 -10.183997785955734 -12.507383403285019
A -8.9784018186446364 -9.8666742345357878 -14.816769164736808
A -8.0110949725981975 -7.9845317226408818 -13.593015590889712
A -9.444780031418837 -11.248431706699227 -13.769049634719414
A -8.6003165529770609 -9.7431770039331607 -13.125875405824543
A -6.7972923512237093 -9.735545681046279 -14.66232874919087
A -6.476341912877678 -8.572283454670643 -14.520402706674098
A -8.4624464562310973 -8.987475211366645 -13.809107063630115
A -6.1313461728752401 -11.154282143944332 -13.013063998561185
A -5.8070376790850853 -9.3472747807912739 -13.765437040805701
A -4.7249365746408722 -8.8020156777633805 -14.515262062605478
A -4.7279435267343288 -7.8964623884793044 -12.819822339264009
A -4.839836179164279 -8.9677794524307579 -13.433365462041628
A -4.7036753012118027 -9.8105685419272515 -14.10231165467421
A -3.8338613134613166 -9.4702619374324417 -13.671104902310036
A -3.8059854191029383 -9.7890851513164883 -12.34109000104219
A -2.7557416186897452 -10.336315531180027 -13.53626777763907
A -3.2847233731945038 -9.0792517081020083 14.856306888311222
A -1.305757258629167 -10.351986363374531 -11.891559866656355
A -2.5345163665255708 -7.7385831875723019 -13.47718504155786
A -1.6972275373983368 -9.3223026267463442 -13.767610162355773
A -2.4430879268120536 -10.232891018478711 14.708924740343127
A -1.9244274954319434 -10.685184082611428 -14.034153794664672
A -1.0236558574752233 -8.7693525895711399 -13.129728905238816
A -0.73914869710867281 -10.470824951407172 -14.041555932461529
A 0.47671285872389213 -11.545207525708419 13.554317755127386
A 0.76425989491525925 -7.2206914638353021 14.898212931139884
A 0.21783156580001575 -7.6470151761984893 -14.522594243337268
A 0.32024499125876232 -8.8083156851031941 -14.537842678328476
A 1.9144386369768838 -8.7840827708713825 14.938182389410418
A 3.4352896812599032 -8.9359542478337062 -13.383828548886765
A 2.3172844285839078 -9.5753288239669665 -12.992717788932184
A 3.0857275378003668 -9.4800164288895932 -14.170158408479175
A 3.4072999169339377 -10.085294110571535 -14.999240565162935
A 3.4841032137798837 -10.331855400791346 -13.315271441191596
A 2.7728612761285039 -8.5264951563576208 -14.354064577503079
A 4.554048735448128 -10.889599788136062 -13.627356996089189
A 4.9076151486376078 -9.5137277954388306 -14.878983897564989
A 7.4920554091136919 -7.9258309965613547 14.522681361752438
A 5.4885608138090731 -8.7942087314395021 -14.490275468798075
A 6.3343223206094601 -9.8723538257589727 -13.446671802234095
A 6.2795856562199992 -7.903072085516011 -13.967753273595656
A 7.7982396556345952 -9.1727000632825959 -13.277794801951355
A 6.3328334605284411 -8.2874653864794521 -14.958630279544817
A 8.5054369089369999 -9.5675022557286304 -14.708609280126518
A 10.634557247463427 -9.5422481820952747 -14.8272726603088
A 9.2141898347333928 -8.2452238219235454 -14.501743425162749
A 8.4466883105985744 -8.5569728699546808 15.025265314995178
A 10.240412376605509 -10.135920406723548 -13.405840673318204
A 11.632593709615001 -10.471900953582539 -14.878511951171813
A 10.929251478694198 -7.4673444712460624 14.683688230191244
A 11.112181092105386 -8.676969843597254 -14.617434648459911
A 10.933286872962055 -8.8607163250404106 -13.184294764605092
A 11.547231434500963 -9.3656917390127639 14.478647395522101
A 12.814168432079255 -9.3701680656153723 14.324223969368038
A 11.814209326528422 -8.7039433786058318 -13.814583266803105
A 11.743013850265426 -9.4591833998221162 -14.569462552518637
A 13.287776924875502 -10.263138557309025 14.593795952878782
A -14.788826353097246 -7.2207210921985263 -14.903486483859304
A 12.973542577268347 -8.9628293411857154 -13.719097494459305
A 14.528187157613937 -8.4665607156438902 -14.835102610422512
A -14.759550219555654 -6.3630990992776386 -14.035038297106388
A -13.230515337147992 -8.8779891526024262 14.420245689354179
A -13.900708922270221 -5.8417665071560405 -14.027641159769624
A -14.638902612248962 -8.5616921571375695 -13.496379967476811
A -11.395551340404321 -9.3792759059917152 13.792052867690757
A -12.832887066058721 -6.8803077462802831 -14.971476699881077
A -13.47127069779013 -7.5786275107391985 -14.28703527680211
A -12.395224058009052 -8.2992697229876828 -14.091743104816995
A -10.071450830854378 -8.4077916171605978 15.034758054991762
A -8.9673147990939039 -7.9842459057727861 -13.950974583342175
A -11.25142708704408 -8.9576147835945239 -14.465852656693189
A -10.226417086329478 -7.8054940178959615 -13.212428855237283
A -9.1577430078110371 -8.0809655059153638 14.053625738236793
A -9.25121631072812 -7.62703392972975 -14.863886266896207
A -9.1862995694141354 -7.7825785880917104 -12.909345352263555
A -9.4708598532985153 -8.9333390580633072 -14.467984007088557
A -7.6349445930415021 -8.2574106082893834 14.921893143002098
A -6.2886673295671409 -6.8618618497518709 15.045976677578153
A -8.6711603357966425 -7.107743459239475 -13.49153185409803
A -7.0758944976020643 -7.9258889700600053 -13.04419655676457
A -6.3555810119735732 -7.5966874854650532 -13.762811449918864
A -4.6108183319944551 -7.0402006472105736 14.891246266971201
A -5.689387218996476 -6.7094827483781527 -13.875834735120794
A -5.9451457222455808 -8.3523827693856543 -13.106343990868837
A -2.7991228093091225 -7.826753797256913 -14.482515978430225
A -2.8232985057971005 -6.8614153949840171 -13.878630442840917
A -3.8915007990644312 -7.3362580341324737 -14.629647638428859
A -2.9649829693399479 -8.2661250602273313 -12.591209145729247
A -2.7674668342783955 -8.9416357948173104 -13.738768736923126
A -3.3152571566143987 -5.0151846762535879 -14.34261347190898
A -2.1747616233668379 -5.9887758221626264 -13.926393354625777
A -0.66627575304478326 -7.0474473806146989 -13.14018896195468
A -1.7369302137263236 -7.8851010489563027 -14.836073283679154
A 1.0323174902205949 -6.3297518204857459 -13.788342803163275
A -1.8799092334326606 -6.4223794941731001 -11.799160931139358
A -0.55267881689623499 -8.9040721159246576 -14.021855978463238
A 0.30855079452873019 -6.6174887495513444 -14.554392152383803
A 2.0768587059315098 -5.898936217185657 14.788910862774859
A 2.1465616231941347 -7.6794401526624032 -14.62036693274268
A 1.2022973513739867 -7.2295293121987161 -14.322347531712895
A 2.4434302935749845 -7.6538118680443485 14.470851925375792
A 3.7521272844259936 -6.7814823301791192 15.046649450597137
A 2.8427655586414633 -6.4232135349561439 -14.449912741480039
A 1.0727166355389985 -8.1940311477464274 -14.84359885799611
A 3.9452012391344065 -9.6061360353304561 14.421559122511514
A 4.0718861245378397 -6.2455115295741095 -14.246538462777332
A 3.5942746473928016 -7.202880405553997 14.135049176855475
A 3.3154893646611399 -7.8636740025450305 14.978343601905074
A 4.6619582751472333 -8.5366161717694702 -15.002772344679457
A 5.2435698884775617 -7.7387434101395982 14.865171346128127
A 4.9407294610657031 -8.7653011420962841 -12.970867353389508
A 4.3719397807573044 -7.4584701301952574 -14.548604836745985
A 7.1430142547369186 -6.9646376494407258 14.145086674296067
A 8.1398049672543564 -7.8384158521548306 -14.513089666055336
A 7.0803832769359509 -7.5531032190928 -14.669577425091527
A 8.8284455566025848 -9.4254675649030162 -13.696992696608762
A 8.5387230754789432 -8.438118562879664 -13.618115926095602
A 9.8889219893178897 -7.6449841783780883 -13.93903423166428
A 8.3742936665066843 -7.5133195241559978 -12.965134743039684
A 9.5747140892142415 -9.2697935475168478 -14.873755604745053
A 10.553354155230423 -6.8285713148276566 -13.430841252484692
A 12.352571715311008 -6.3534327547722222 -13.967425899392682
A 9.7876033208241875 -7.1004083955549273 -14.823134173742673
A 10.539145977218512 -7.9261583387179266 -13.191144140708174
A 12.381596312990814 -8.3826328513091042 -14.804052044663996
A 13.001427570020519 -7.3176696268893462 -14.068866631764651
A 13.438613463915452 -6.8096173360381425 -12.281834596610107
A 13.651611583008791 -10.141780416173431 -14.435707449288566
A 13.38218264040189 -8.1851845119499096 -14.524192161219322
A 13.270550999948419 -5.7352658565805337 -13.902468646074459
A 14.285925495918196 -5.7893165127103705 -13.362539656630309
A 13.736631259491869 -8.7934203237377293 -12.830444804059622
A -14.850475521213379 -6.0227594908053401 -13.070030823478611
A -13.586787701904237 -5.6227879947246073 -15.056734976081431
A -14.940287320209499 -5.3083883753676631 -15.075216642193519
A -12.893355824278972 -6.3865577784648542 -14.081498520175881
A -12.507262248941846 -5.7945427062774213 -15.051308336103869
A -11.831180889824637 -6.01719947673008 -13.926300516507085
A -13.23607148885298 -4.6264782796905557 -13.412493013032138
A -12.182939009990664 -7.1027764163890597 -14.079707831613
A -11.26444492872894 -7.3058575524413145 -14.914985549144742
A -10.82506308238877 -6.9159867528290215 -13.764670584173377
A -10.274225084827563 -4.691943274104645 -13.162094368048663
A -9.3875178929090648 -6.7019122072720565 -12.827711853996597
A -10.172319856755085 -5.9318081448188886 -13.308929578158818
A -9.3322246613131519 -5.4429910220332038 -13.552124671424243
A -8.3745025243747691 -4.6127123460779336 -11.675495897176713
A -8.411546266684228 -4.8695259196290994 -13.309210346009277
A -8.4898172931677447 -6.2979377947532331 -14.294556892782721
A -7.6423817471248592 -5.1741985661801291 -14.003610459029584
A -9.3745489281184309 -6.0421480652324249 -14.702635801130842
A -6.7463377845289916 -6.7047884971992016 -13.369852804412641
A -7.4931214607860337 -6.1327060582952653 -13.714185502471572
A -4.8221715281871873 -4.5585145369898594 -13.779391333517342
A -6.6027654360914241 -6.2726641678032191 -14.348242490381377
A -5.5474478727165364 -5.8090643053137478 -14.398027735599351
A -4.0677968826468227 -4.5379576283140644 -14.818295050144322
A -3.8578198285967913 -4.7148909003837813 -13.408547031054297
A -4.9152743590761672 -6.88590053880786 -13.267424385750569
A -1.8859325102088182 -5.496843628083063 -12.303565327874939
A -3.8038903941455571 -6.4043881594308143 -14.229754693953138
A -1.4815651325618735 -2.9516848977320995 -14.735818121396703
A -2.5318462886869675 -3.6234834366760382 -14.688554505752553
A -2.6352757283650572 -6.2148618351180627 -12.772931233241788
A -1.5967664649762805 -7.10400803417948 -13.640383664583347
A -0.72302476742778354 -3.6422332415119145 -14.630802331736447
A -0.82975520858440044 -6.1636137981155397 -14.122917288799627
A -0.020772924409033462 -5.8484196306532006 -12.731366688247004
A 0.7267763326447958 -5.4819392454167142 -13.30534942541116
A 0.99051771584941184 -5.7985016636740214 -14.963166618664516
A 2.2490970856162238 -5.2504752469327443 -12.820653315271764
A 2.4256188962998233 -4.7673178112125365 -13.926048831617418
A 2.4688030897687958 -5.0377489048084563 14.09216977011604
A 2.9546653030636221 -4.8096398541168091 15.071531779015968
A 1.1792140525657244 -5.0432516822920661 -14.142586855698809
A 3.2771065029516691 -5.2957017675314662 -14.275880618297409
A 2.4735092132693941 -5.6056898012209029 12.888113807251976
A 2.9052646456646278 -5.9160541014333257 13.817348825962686
A 4.1393438289461262 -5.8483161817722795 -12.498491100634551
A 4.2901590671562131 -7.0436788728964048 -13.611098150609058
A 5.060172840973868 -6.6831435698887773 -14.543407842385097
A 5.3584805766423678 -5.5167204606666482 -14.644096657995231
A 5.7155508144943594 -5.4474868912187961 -13.699847769143741
A 6.1543959793134011 -6.4657187294851823 -13.996941600057715
A 7.9887721421124969 -5.1228554400263224 -14.137364075201772
A 8.7325875455681796 -5.8257594346522152 14.066461116545668
A 7.1180440089808137 -6.9252076944651941 -13.844302780106627
A 8.119206619655353 -5.208903274330817 -13.098129689096959
A 7.4328352392923582 -6.0612658736835785 -14.567634328103667
A 9.4249277191028362 -5.5796119475211015 14.870741285082708
A 8.6896755709612119 -3.6659630916922983 -14.756679536857476
A 9.5475086348408968 -6.7873938481687457 -13.097980669003563
A 9.0566350710327299 -6.4806483062652829 -14.302206326159466
A 13.038893749238646 -7.2220809609488157 14.830561194159817
A 9.6939162126662541 -5.608467245792701 -14.287516815406773
A 10.68997472775143 -5.3047909541053935 -14.352246920695682
A 11.470142844347981 -6.4729252237776516 -14.465197481509771
A 14.10275914574038 -4.299912147839799 15.074907940928727
A 12.326419201356282 -5.4333433724466005 -13.356591786753354
A 13.741469771809422 -7.2973470774341527 14.011375381645447
A 12.694340504967137 -5.4411065105911316 -14.73067157218868
A -14.314656015597002 -6.397421740870783 14.701473746613177
A 13.767555209856361 -5.2553079678912633 14.88832845087444
A -14.935372350380213 -5.0516922195995493 -13.336517490325317
A -13.949069717879576 -3.5970238037909192 -14.800799278936474
A -12.85872882733935 -3.5665341583158656 -13.818303439562303
A -14.259499883563899 -3.3209556402356397 -11.618351184208469
A 14.979650068912347 -3.1085578476775857 -12.727390570089701
A -14.297842324576026 -4.8520260721917241 -14.137185351937378
A -12.910154456795755 -5.3036048280167032 -14.229307898911951
A -12.048852853309496 -5.1014708618505846 -13.564634074558576
A -13.023955582035065 -5.8059335733391118 -13.237656192751542
A -11.407210497487611 -3.7607192625519681 -14.169677595800302
A -9.8575548356860789 -2.5551817467078584 -14.637983859140105
A -11.200323710250915 -6.2058050386399888 -13.007866409161364
A -10.987728340385033 -4.6706241296973054 -14.305829302885604
A -10.297711915224177 -5.913529342759074 -14.332292992183477
A -9.5823940692080551 -4.190193742258951 14.858436987828993
A -9.5318978718081251 -4.1674268832365531 -13.76781090134032
A -8.6061701478891965 -4.8700000959186873 -14.526822411280122
A -7.6964442950627738 -4.5578498404325014 15.052266110838259
A -6.9937027752002559 -3.3013300601032771 13.785578163727791
A -7.0940624813351656 -1.5450620100851169 -15.033981875847854
A -7.676129580785152 -4.4674061909375915 -12.451602828740315
A -6.7903614544085276 -4.7447050198629901 -14.554837842621996
A -6.1377707733029174 -3.8364921122417219 -13.64804142675573
A -5.8752311674969357 -4.7357350971272654 -14.123745833505735
A -5.8550629981679592 -4.9578134087532693 -12.993250263491861
A -5.3716323240209425 -3.1568328398546228 14.549466269909894
A -4.3223404541033732 -3.0928660775792878 -14.636546367502254
A -5.8354797885150269 -2.8466929036090525 -13.945715102450226
A -4.7400598138508734 -5.8663817423650571 -13.653921328654544
A -4.1666024699868629 -3.1056776870772915 14.479782043599442
A -2.4194329441105662 -2.5368480454256539 -14.733830981965353
A -2.6349292267264071 -3.6193189597393114 14.443559662909962
A -1.0178210655438067 -4.2651367359830283 -13.884628895056652
A -0.25287241589345777 -4.6576379084876951 -14.712505346965603
A -1.7266225423990365 -2.5040294043508946 -13.834054889638614
A -0.61692619537814364 -2.33522516640654 -13.656130014582594
A -0.8006773604980123 -4.0266609991427211 -12.862508626664928
A 0.50719059648484699 -4.3341962465408788 -13.651551343765123
A 1.8607019097138937 -2.8970335857216161 -14.849096632541317
A 1.2696916015375663 -3.4958931143589451 -13.144692991649187
A 2.1499493988582326 -3.2767413895957498 -12.695516663204556
A 1.9431319176078996 -4.805338069533482 -15.064256257215717
A 3.02997290188577 -3.9815367536907256 -14.469734916359346
A 3.3348547001965354 -1.2274608962468851 -14.000906834698528
A 2.7457699473925166 -3.821810047766665 -13.381595054354779
A 3.3841518977340828 -5.8660128243063117 14.824178369537984
A 4.7008809326708247 -3.2289364548600585 -14.235682000140402
A 3.550077799844777 -3.949266890728691 -12.761487400663977
A 4.3743543265649629 -5.4558113296340647 -13.565943116081163
A 4.6134798101211265 -4.4770057190123156 -13.949428803488912
A 6.0876600316007776 -4.5145175951136913 -13.829539350631762
A 4.414056606135393 -2.7551782255059711 -13.34945427939719
A 6.9128444163536207 -5.8869872833937498 -13.299982223787463
A 8.026899428565784 -4.5070708885740025 -15.017471880491936
A 7.0616796793002772 -4.6174837670728177 -14.143870564614955
A 6.7389747986734836 -3.5345261043816336 -14.104177343672427
A 6.5397631616196614 -5.4800276744706693 -12.320466127200064