ITEM: TIMESTEP
4
ITEM: NUMBER OF ATOMS
23328
ITEM: BOX BOUNDS pp pp pp
-15.08190489966774 15.08190489966774
-15.08190489966774 15.08190489966774
-15.08190489966774 15.08190489966774
ITEM: ATOMS type x y z
A 13.484181377049811 14.980051219584581 -14.567989715577223
A -10.961853407994946 -14.461696641437896 14.295100945879325
A 8.4020070093357226 -13.797861800626054 -13.325830530539401
A -14.309565173292656 9.1615082936929895 10.504699819167133
A 14.268001653484504 -12.513857402853574 -14.772588152541616
A -14.836364579194342 -13.218174967881026 -12.927294272848446
A -14.276074784248783 14.675902771231542 -14.327806986611389
A -9.7492837318729286 -14.289875991256579 13.930556939760663
A -11.831081668058358 -12.27799844828909 -11.496577449451834
A -14.015865073738125 -11.709936806172092 -12.715287667478266
A -13.233301261898548 -12.251801435601475 15.018822462626533
A -10.922600862404884 14.67899765381404 14.167710852521335
A -9.0174493344397604 -14.642499117451967 15.077518192958687
A -5.4474118105421185 -13.859959485847318 -12.011027544910421
A -11.521387654530507 -11.007627592570975 -11.343291967958502
A -10.261237044150588 -12.812630723391424 -12.37013438022546
A -9.7894958726512673 -13.393947102174296 13.399960554940211
A -10.816172274690565 -11.552619060731049 -13.329814137037026
A -10.096026110169065 -12.717950669249388 -11.302988284689686
A -12.044823186515119 -13.238057895463237 -13.697308351443816
A -8.322473988908623 13.582753186362499 12.515652218910056
A -10.9002875290661 -11.836748253635047 13.01618747583364
A -11.090710853274384 -13.263927962375346 15.032504049640909
A -4.3780918892423406 -14.420411955659999 -13.673980367455824
A -5.3700083487618651 14.631856632513772 -13.746621389849638
A -3.4867640057106519 -10.761566064568855 -7.6825161411692493
A -2.0975888438563297 -14.670800185556869 -14.616232963469065
A -5.4512723588017034 13.959417137959832 -14.650505044491005
A -1.2484294073105608 14.007030412957498 13.952305015889664
A 0.15015882118165125 -12.726171543610272 12.936066390112625
A -2.7719504552457077 -13.359370978796727 -15.007709569856004
A -0.9919432154817398 12.664068275285349 -12.65402792250236
A -1.7106984642678238 13.682869067507497 14.810988823146971
A -3.2696753154565128 -14.30420807640021 -14.020665421544127
A -1.8541354808038155 13.088471809563195 13.417047841970692
A 0.040314494070207089 14.375481535568161 -14.701647600230412
A 0.86160592180349493 -14.091187061610571 14.113719626463585
A 4.4064472133612984 14.661290782422038 14.66238672568524
A -1.5599360288585151 -14.817977613152889 -12.812995510617423
A 5.2181735215553662 13.080613076514723 -14.179166305963749
A 5.2623568370455773 13.66569229871978 -13.251127711238897
A 5.6644606814002767 13.759984597286326 14.414579962886606
A 4.6840767455656085 13.359367470501105 -11.150011926976552
A 2.7470479285616665 11.319495881201775 -12.057310208299135
A 3.038220425564194 12.63384323202952 14.223506267749
A 7.340035372843273 -14.925777345468923 14.153840370440271
A 1.5798194602829916 -14.758492765176065 -10.310266405581
A 1.1109649383474911 13.002005709187877 -13.224682529256688
A 9.1373663327766099 14.619790000962453 13.535649632531744
A 8.4001581794761861 14.956239292311624 14.197885164192719
A 6.0822036536764861 -13.001988568048931 12.380808573714443
A 6.0092103707280948 14.49246085412061 -13.99176110332052
A 8.7151901964707541 -14.171694203168478 13.650727090198536
A 7.2422832148119989 14.897034455998137 -12.936802973404658
A 7.7652291573508663 14.699105246363985 -14.74383613947465
A 9.2598010186127979 -14.61884805531794 14.525201533227822
A 11.196928665111383 14.090731703918667 10.97909588063639
A 8.4479342407969433 -14.698812028176253 -12.640882016608707
A 7.8456776312034 -12.581691681251122 -12.681809455983592
A 8.1479257559007987 13.887120610356494 -11.142261248849739
A 12.287261364697637 -12.284501993099635 14.723275611401709
A 11.647129604075976 -11.951276912942522 13.164605801303992
A 9.6722734275693707 -13.99685542332667 -14.116394898385813
A 7.8877874793672547 -10.590299710104659 -12.8431405006557
A 14.042176969294854 -13.722461053857096 -14.630444488083587
A 14.704162332326383 14.231171684084064 14.284120511993844
A 14.107605656845177 -10.018239092895177 -14.553309553172809
A 9.8751086511644548 -12.952574864705529 -10.363871674753652
A 14.229182657943234 13.263235307636474 13.928414566889181
A 14.90709752497186 14.816788422702775 -14.474351371443705
A 12.795910334953216 -10.723634057721009 -13.914113772217343
A 13.024114167032913 -8.9235872579418398 14.441597696927792
A 14.875224166489625 -12.296054240990861 -12.416252610839626
A 14.977434766313989 -12.417570477454028 -13.726014114759797
A -14.352957210865357 -10.626837939474667 -14.123677789568182
A 12.864320434358103 -14.54139972141717 11.484286528213332
A -14.71471035628131 -7.6622914917508353 -12.695661987674184
A 14.343603138425634 -14.628911696477452 -13.691027758711469
A -10.6216301709484 -12.479152211735585 -13.708022209090638
A -13.432880882757686 -12.857530224423082 -12.647136905627416
A -8.8806083190622687 12.732600041176941 14.583610299316533
A -8.2145348944744345 -12.382489556399543 -14.237043292123788
A -13.726743579045221 14.882871021288185 -9.038076302874833
A -13.847823110321153 -11.287824469349227 13.606813462611051
A -9.7929541987704578 -13.03566067952227 -13.601953174822849
A -9.7855798911595819 -11.781731793494959 -10.791303410444836
A -10.733129360631192 -9.8641836831599701 -12.300323525639557
A -8.3378707467788669 -10.758558236500413 14.961828214835609
A -6.2656412880882399 -11.480121875202315 14.306155527559053
A -8.1477081062309278 -12.624716353808219 -13.16062365422629
A -4.7619852631133366 -14.140960742770925 -11.083968254699167
A -8.2217512699620219 -13.54774393013316 -11.899461881476638
A -6.0263198886833145 -12.096675336170055 13.491834437040573
A -5.8199611947810199 14.721645626462559 13.825816907225619
A -11.272200424485234 -12.74182576210845 14.144698017028997
A -7.675106184449012 -13.402670798033071 -13.745277876192782
A -4.7383180372092086 -13.11777909030921 13.799670746213266
A -6.1646758438534066 14.954185235398317 14.743924050814712
A -2.9132037179402808 -10.106284535570873 -14.019846563355499
A -7.7150032563627366 -13.450706500897638 13.459206071167227
A -2.3990773814952435 -9.8518399087850028 -14.93949508848452
A -4.3268142837489458 -11.107740862664903 -10.035003389556076
A 1.0558088041428451 -12.097347890232795 14.891497556983179
A -3.7835623344623408 14.505428282753856 -12.291274237714665
A -1.6259704916891768 -8.9444680789954969 14.56860596446935
A 2.1893648390865721 -10.716830890300878 -11.409581832702944
A -0.12785298398626396 -14.378365423366775 14.205800960256726
A -0.92106827096703181 -8.0001919871958496 -12.920351581706974
A -4.6517889664965262 -14.825068886411355 12.648182381401547
A 0.94304344673321239 -12.923049303949288 12.245082428362139
A -1.7347579468249807 -9.8488683942869404 -11.873647169442673
A 0.099698627186362979 -13.620820210535962 -13.168786646355827
A 0.51066985556796762 14.896614995272545 11.699516650853266
A 3.7740979335615732 -14.123604542706133 -12.984783225172679
A 2.4914950104254832 -13.90453688429762 -14.357795951279034
A 2.858025390813133 -13.001884065072392 -14.124040782988704
A 4.3979436278638948 -14.260227491584082 -13.775813440586857
A 2.2438409492571054 -10.404316305481144 -13.352489649653462
A 1.9734145825016878 -8.8692670579146817 -14.671046346813467
A 1.7423106629540275 -11.366178455351122 14.981784095023441
A 8.4696882103917801 -9.0024057878334567 11.299125910166484
A 2.728022877680587 -10.633248865617462 -12.403394636512678
A 2.4750162122966417 -9.3900774651552954 -13.715128700505831
A 7.058898094856513 -14.632738131088221 -14.753548573078794
A 8.0337684307556287 -12.807334662305978 -13.785428989654569
A 10.243789628564388 -11.909193682120355 -13.01106606685763
A 5.1890848451424683 -13.957709235352413 -12.458086272192816
A 8.4182226436802861 -9.9596798522415959 -13.414520164218981
A 6.9315391784459939 -11.854244519922794 14.613177476302509
A 14.574041866069862 -10.354516902841501 -12.404548077993535
A 2.7925342185896898 -13.363881503910905 14.897734596986874
A 9.4047148582980746 -13.373130663075269 11.722526265493723
A 9.6322587381357465 -13.611909872566754 14.959633710190639
A 14.053777869480028 -12.565052998321875 -13.111239094488983
A 9.0425821606703192 -11.365213441619529 13.90302696561648
A 7.6739325864546997 -11.527222568002246 -11.646159687055315
A 12.789922246386386 -13.42915876753742 14.985130697784523
A 14.566563477392684 -14.207523392782676 14.192079924711482
A -14.148678095536379 -10.382924385627479 -12.141552770350081
A 11.994154316685304 -9.8225262229523445 -12.367026955869422
A -14.775008400731799 14.170139532425459 13.439369082970625
A -14.230599463156791 -12.008365955351398 -10.144526582908686
A 13.14190995109553 -10.758572747448182 -12.61037897400225
A -10.180554573775837 -14.193945373760135 -12.352764269656447
A -14.0926988578157 -11.777697602032381 11.421291735245259
A -14.743015717034659 -10.934473290208814 14.063525447068752
A -14.952673786915879 -11.350192686781128 -10.454352741589952
A -11.592694674605585 -12.471828469647376 -13.215786600602932
A -13.359385567380061 -11.022547497189002 -11.907121887028373
A -12.196758299719235 -10.449112124210439 -13.761671254798658
A -14.248589611412376 -9.4152610444933984 -12.819431585712787
A -6.9606055605082986 -9.9354915445583103 -12.40464442274617
A -13.309470851144619 -9.2543549696868901 13.818130148406755
A -6.5397584106379139 -9.3236262494241249 -11.695570646908855
A -11.601652846863239 -9.2089117716759237 -14.305173483599821
A -11.689732632316668 -9.6302705276676583 -11.639479551332
A -8.9726546529857512 -12.112665136690643 -13.593730465148855
A -5.8638133038460936 -9.2591876065120715 -14.806272671740036
A -10.09593453705787 -11.744682365591467 -11.753763350194033
A -9.7781611940150022 -9.0502464625794481 -13.978483193949616
A -6.4371218066259539 -14.041930189110278 -11.309054556802659
A -6.8424104507871988 -9.1697784611510347 15.007592290636333
A -6.183340624451513 -10.330378315609769 -10.878864435749984
A -4.9797143487088444 -13.81716779705796 13.03908439230575
A -4.8349938052514121 -10.114602811838207 -10.804275541410458
A -3.116207776523706 -11.640591443294172 -11.184441176285992
A -3.7378972951675919 -8.3657372554328742 -13.863743049578199
A -1.8174610730278602 -12.406685780775936 14.978697668752552
A -6.0044172416033366 -10.512375608800873 15.020200407196205
A -4.716791722552867 -13.412948773354 -12.663014018853952
A -2.5934045948534457 -11.488740712830568 14.889385327696704
A -3.818823523758204 -10.453419126786603 -11.134456554177891
A -0.4795149594113674 -11.81918003273926 -13.476525748452156
A -2.1436896128457805 -13.107478862137325 -13.289611907957836
A -4.902237904769156 -10.538112725533237 -12.187777063356704
A -2.534951464473139 -12.600691523334547 13.283895727573658
A 2.26163073160436 -10.224450374054703 -14.47356123292721
A -0.26066215463488979 -10.649457758780924 13.69525923997065
A -4.0438845001996073 -11.197330251245916 12.597465192378383
A 1.1953068411864178 -11.307393778836808 -11.426545278982314
A 2.405662290661172 13.793795791029098 11.75456590314915
A 0.040866784331054291 -11.437647039730193 14.336882356129047
A 1.585957154114265 -12.129200487857933 13.870378967701399
A 2.7024367043693642 -14.858885092952464 13.765722115947415
A 4.1447691317233346 -13.908645070402894 12.199551304615465
A 3.7707449066997736 -12.809041280569797 12.071427495209594
A 0.77092690317140089 -10.15104051233366 -13.444292856107552
A 2.0620838894837226 -12.517586158917076 -14.96358144598816
A 0.39329581988267104 -12.374086093673503 -13.453948096517733
A 5.2299788727894603 -10.036341203467964 -14.674246617475372
A 1.6153958761824276 -12.386729004473137 -13.378418543223331
A 1.4022683466946126 -11.094481287840315 -13.313481499259385
A 4.4702683413829334 -11.768029790425906 -11.18726078290749
A 7.1356975362944333 -10.932334785299485 14.189447498437859
A 0.97207050061562561 -9.2157724997793089 -14.919108292238052
A 7.6357044475922526 -10.450528090782411 -10.650199607665209
A 3.6924288180725036 -10.929611147404215 -12.486927019358705
A 6.7172595470639944 -9.7147531023194666 -12.348048933270546
A 5.8915497375985488 -9.3207325785376174 14.719529801297966
A 10.387166076237662 -11.155228548590774 -11.041518110673554
A 7.7153881832005 -9.4925890523998326 -12.714638700641455
A 8.6211328012888053 -13.455828322797236 -14.884107465701101
A 8.1149882765356178 -8.9940963245680496 -13.593877472560161
A 7.4285555704621444 -8.7970925495325734 -14.726610852040233
A 9.5228984090016784 -11.003732433451782 -11.766898376170937
A 13.265683556409416 -10.482695201929815 -15.025549385378524
A 10.537825486390547 -10.205076426046045 13.878542352663885
A 10.592745046142467 -10.84397202292247 12.449007839661427
A 13.244842346818926 -12.452345685857116 12.038208074628798
A 14.522798145163387 -9.1844232845606761 -12.689910301154939
A -15.04381180318809 -13.234064171212442 -14.403024939329862
A -14.908158404361837 -11.122500217485623 -12.63893104907112
A -12.798074542159728 -12.544764026866003 -11.675011322366222
A -13.412575164931599 -8.9122863494500049 -12.351843163967311
A 14.459556979795906 -14.312178550898434 -9.7017853369670259
A 13.637493824202954 -9.9276109686468512 -12.061831695188934
A -13.936635123439578 -10.741452750197029 -13.103626141922529
A -13.473757872394375 -7.2640281913452442 14.332746814925182
A 14.020196129459922 -7.5996418651331643 -14.750084456182481
A -14.079208243634385 -9.4743981379429378 -11.353890639486519
A -12.965576411317844 -7.6771107291577616 -15.072825891040486
A -9.1776990995391596 -9.5249226782637972 -13.237690094188192
A -12.055677318055951 -9.6240078926778398 -12.710963091143611
A -13.831278853394778 -8.2884298948365362 -14.482629710932075
A -9.9411204899515102 -10.073855717936398 -13.752619972309544
A -8.6073151428573578 -10.199308244164987 -11.231644033641526
A -12.417916874687375 -6.3414244978640939 -13.67402901917869
A -9.765990541185003 -8.0405439040926598 -14.591739216533734
A -10.324411885169637 -8.9860830307810922 14.786033792150706
A -5.9129719591313465 -6.8337218637046222 -14.355206190070771
A -7.7365631052017285 -11.444795641524161 -13.801760685793072
A -3.0924325174533003 -10.605738756134128 -13.094274388218579
A -5.3059934045399366 -8.5734241692943467 -14.167844785140124
A -5.3487462034594744 -7.3121436082308344 -11.57351179013885
A -7.5530468408747895 -9.8501668667539626 14.612145849768844
A -6.2746298207976077 -12.127841294345528 -12.555517037041605
A -3.4301281714498537 -11.148337421140175 -13.885134357229278
A -2.0201633457752699 -9.6144145843994995 -13.793726712950241
A -0.95150949489084169 -9.2221823324692291 -12.951646555888018
A -5.8007086064959674 -7.8817795405684663 -14.743774754251863
A -1.5122576346178529 -10.04357084330997 14.789362145162062
A -3.4055267781530958 -10.894243169751805 -11.9345482655635
A -3.1009068352368336 -7.7028806387802256 -14.44029603047341
A 0.922659432574925 -10.290931164941979 13.458569658833952
A -4.4324776209242938 -8.3404129459758796 13.877489447404166
A -2.435162016954644 -13.314301875018733 -9.2117257589162946
A -1.1345104643042085 -3.8135087109106003 -13.828143641764495
A 0.73786631240818357 -12.950864839421049 -14.703397661578304
A -4.9008755982929904 -10.731862365941241 -14.574011793951602
A -3.2602844975465821 -10.290061793087895 13.314783521342953
A -2.6894605268827512 -9.456932729270493 13.125534887838157
A -0.52366713640721085 -9.452910373506004 14.858016219955791
A 0.95783791911861105 -12.062593314744854 11.682602432906993
A 1.1513720534363092 -8.3771406720201735 12.344054400272036
A 0.47217375953808632 -6.0277242927494834 -14.28307907773052
A -1.6869889594555065 -8.5452726423793504 -13.297578846450506
A -0.28703170076460699 -4.0652979728949052 13.74066744143159
A 6.0365406443848713 -7.7687715060929321 -12.161703360089735
A 1.9997173060277686 -8.409494109054231 -10.139411096160371
A 2.1301017303412721 -9.681261606109473 14.840545782267304
A 4.287888418464199 -8.1678848443074319 13.417733927128033
A -1.2923013830549666 -7.4655464198518438 -12.118505394121485
A 4.4460451730344888 -11.741736320125515 12.951731931479255
A 2.3398401868231193 -8.6088501680253771 -12.698757549968834
A 2.686067187650476 -8.4309884817948397 -14.012775787633942
A 8.1267679226324816 -8.3544477591963684 14.365328007067284
A 5.7714242900547097 -10.395099953465774 13.623480696167725
A 6.2131061472816862 -10.396344477415616 -14.277045251184816
A 8.5109872799998847 -9.2301205627826128 -14.659513976848727
A 11.082420781953736 -9.1523761240470414 -12.733809992445275
A 7.1629320002566006 -11.281240038892385 -14.681427695637066
A 6.7414092391141027 -10.411728898816708 13.238399966974157
A 12.600234146261069 -8.66121694230206 13.283676124784094
A 9.163256222270757 -10.667431196780671 -12.927654085729509
A 9.8748829727817284 -8.3094563343641958 -14.109994230886281
A 12.013212368320271 -9.0487913060138645 14.100616281654016
A 15.01263707167695 -9.6167079293972773 -14.410292044816687
A 11.632614409923702 -5.899771227875835 13.606036197986157
A 11.734847624341322 -10.330080178091348 14.453013839541265
A 11.185539111750272 -9.6633568021705027 -11.774725519317181
A 12.203500150044752 -5.0015499567479367 10.518305237357573
A 13.708368913870443 -12.560875406690466 13.847097955777208
A 12.525572109814753 -7.4451788708569433 -10.986224706771717
A 12.525395381784289 -10.631602335510937 12.937860947692194
A -14.848827563789728 -9.4130118139539327 12.432153695312341
A -13.583283598308913 -5.9622834113919021 -12.046102415549232
A 14.587383444041373 -9.0571436715701683 14.367201133002506
A -11.980824101199495 -8.2214169473045864 -14.494594211368554
A -12.50795947544432 -4.8030690005589536 -12.341143412306197
A -14.601414095451902 -7.373817780521569 13.907777603224165
A -14.529547430591919 -6.3673760380997564 -14.472294279084279
A -14.153710179339459 -6.426590352150809 14.380059277566101
A -11.979848942773245 -10.2833057081442 12.411870950395233
A -12.521685582425199 -7.6733820269063697 11.894074379109238
A -11.225071034971506 -5.5506114899636163 14.865519135090121
A -14.282790584779265 -9.2014921348459122 -13.813362171414893
A -11.655340090489643 -7.6082930776414477 14.938961083854082
A -9.8124981034617367 -7.2438160639750944 -11.755939058729682
A -10.260321608582009 -10.120097836632302 14.618130625757484
A -9.818617369814346 -7.598011430521999 -13.506217195807022
A -9.5270124599116421 -9.5265383664343783 -14.841481481476814
A -9.8050310051519531 -8.2833750769135133 -12.552056247565309
A -7.2486163298516715 -8.3008462415721009 -13.27652291102957
A -5.019550418864462 -9.0471154912743597 14.797963720113225
A -9.0903161663307923 -11.217149654151237 13.854774230365766
A -6.0066203335371036 -5.0169924863330619 -15.077634656155572
A -5.7090868847351572 -10.022260217156546 -11.751162837618974
A -5.3607388262263678 -5.4808427716401988 -11.644777924268205
A -6.0887653484705373 -6.8065567118080121 -13.264112423164145
A -4.5772918092023405 -6.373836643653271 -14.487346567563685
A -6.3108893101674939 -9.0612189261003326 -12.726036886897182
A -5.4317753354458409 -8.6565960135171398 -12.998464851796687
A -2.9538953507407664 -9.2572129225038644 14.576528282612529
A -4.7868059203382067 -6.5774212149655522 -10.655178328917954
A -2.8073131087850078 -10.600758696834134 -11.151999204352759
A -4.9897562974312573 -7.6485239412311552 -10.618361018894463
A -3.8928323023114491 -8.403651163171558 -11.25366703669401
A -2.421509167046989 -6.3808171651366372 -15.026107283829766
A 2.1736508213753316 -8.1821631554277197 -11.262077061284492
A 1.1733448041936001 -8.1213075443524509 -10.797457292500722
A -2.0782461068061129 -7.3721519431113043 14.905949412304029
A 0.68571195020737363 -8.1390733303580589 -14.894800805099216
A -1.786092635325039 -6.6144077548525875 -12.522027785471625
A -1.199022531340153 -7.0674877518162278 -13.609556181843484
A -1.4669513875103155 -9.2471087122467814 -14.643695302477431
A -0.47846421634943143 -4.2696172228659197 -14.566170831624875
A 1.7520232904387658 -3.9933376995671295 -13.054229086844597
A 3.6795166353282456 -4.7226870969849957 -14.215688568108058
A 4.3916341088514077 -6.806543394548199 14.977195174435879
A 0.37260133377117743 -7.9449094789311872 14.204258444112776
A 3.2889783119086586 -8.9171522699821235 -13.259610031482751
A -0.091227913934707194 -3.7101667370219862 14.709809317392686
A 4.1673575592349748 -9.6848976405172369 12.068323489733583
A 1.8102966232226918 -4.9516856306535821 -14.318068791444738
A 2.2906833674500273 -7.1752304266294056 13.997733490818131
A 2.9942596701685966 -9.4632448139425289 -12.462993392767071
A 1.7126582032461088 -7.9191009738430198 -14.388218865126129
A 3.8238086322324847 -5.9388009872413514 -15.070586005086392
A 5.8396425036764441 -12.014618305064889 15.049066792213988
A 9.2495977637937763 -5.7652086992043206 -14.075933596494309
A 9.0263638639099515 -6.9777089780512735 -14.535157854160477
A 9.3083765768313889 -7.707606270572696 -13.541781023841205
A 7.6414550834467647 -7.2430611008718868 -12.725229050008513
A 8.630648451348808 -8.2239129814405434 -14.151909816086537
A 8.880162141558408 -7.1957495239301332 14.645589253628309
A 10.84121539668539 -8.501727905361669 13.770125143647604
A 8.7299779517845604 -5.787178147353381 -13.146219008624291
A 10.884255870460331 -8.5419556528329785 -14.124903369841556
A 10.514420119800723 -8.2864569146255906 15.013729505789644
A 13.007785056270155 -5.3937739098830155 -14.617815035352594
A 6.3615310363561717 -7.1712767062224563 -14.552878852775153
A 8.2284285353261541 -6.2718873071910313 -14.254144806777747
A 14.955496503132204 -9.0592144411160422 13.402286914742728
A 12.069312444778459 -4.6576489285880003 -13.201511626744015
A 12.801013890043979 -1.0545279444182478 -11.826904051548549
A 13.25553915903569 -9.9871177916330165 -10.942528486843969
A 14.518705567261261 -7.7796674549296494 -13.351899328761839
A -12.241627912439412 -7.2726249416555131 -13.289388307813287
A -14.48574885955993 -2.121458537551618 -11.123087395303427
A -13.698982925731176 -7.3760370868893599 -13.322278442684201
A 15.081161335446113 -7.3137154751466387 -14.612760262522794
A -12.098257979871072 -4.2473141177930724 11.633748378468255
A 13.09833872692413 -2.5737714684134949 -13.494098727875649
A -14.60560736718122 -4.8918129095154583 14.267061058260902
A -13.397767043997833 -5.5991932331652601 14.581003113850663
A -14.838773346913534 -5.339672500980492 12.543583918761694
A -12.547153189872342 -4.8600127462775449 -14.511685015874333
A -13.500822067592186 -6.1748246666078259 13.099811530694261
A -11.113059381694894 -7.8395265104189198 13.962657862810989
A -13.281827198746845 -6.4898830637463689 15.058963434697871
A -13.207289882191189 -4.3162991414991785 -11.815077236129275
A -12.752548310512708 -8.7477420740489116 15.060980003222973
A -8.2096930343053689 -7.9937357633957484 -12.568392379774775
A -9.3773261703859916 -5.6574929749399399 -13.115761516814619
A -7.2871761106123474 -0.84407871110016608 -12.316987846070409
A -4.6133181098559364 -5.5991952147369233 -10.838321667133268
A -9.2464374146806136 -4.5547048442310105 13.015001400114631
A -8.9064015458212786 -7.6238878302663444 -14.228371220775271
A -6.9267892567223743 -2.8803442752352688 13.884653059365839
A -4.9233007086197231 -9.1182923777459877 -10.573226426919549
A -7.279071828909867 -2.411122560100551 12.44435925507695
A -5.0242087892991156 -9.6021704578875156 -12.610094536606741
A -9.1705412914932065 -5.0925822501654645 14.372144041032154
A -7.2781061570741752 -5.8829922951183695 -12.162831199543069
A -3.5992086675619563 -5.7788046136907569 -10.266246903763873
A -3.518255058370114 -2.2446982585876136 -12.918859569778162
A -5.5921296306060464 -9.0464528617189419 -11.997538646589193
A -6.4495391137499949 -4.4687159258674365 -11.40145528126655
A -3.9808514507321551 -7.1014516270832706 -13.849399232852315
A -0.92327453277033378 -2.052578669037167 13.94087689820703
A -1.6331825461508376 1.6655420179454083 -13.226434504403056
A -6.5517275566920787 -5.4427019065394582 -9.9472796420976657
A -1.4687570853444056 -6.6259840457603367 -14.686639106302751
A -2.431866284971417 -1.0758917340515946 12.995373490567957
A -0.21819121900354374 -5.2170417455129945 -14.952275711045985
A 0.86509838711882459 -5.7248752543581913 -11.041498828793344
A -1.3841650287011769 -6.3732491867284091 -9.2804760096623777
A 1.486267622080732 -6.2195185874888894 -14.320814501445287
A 2.752587611801542 -5.4291516718283077 -14.088284764655722
A 2.2263174561029264 -7.6273718493736391 -12.159418194305641
A 3.7562677552616686 -3.614007019158751 14.363283038283653
A 3.2364024946005214 -8.3949368808926117 -11.840520559661357
A 2.1802286621678575 -4.8987122825697726 -13.258818670223066
A 4.0961174592352769 -3.8154862555624649 -14.790172062877923
A 2.7824964083433423 -6.3486723198697037 13.482375392847281
A 0.56631546917817954 -6.0036272755037663 13.891595524005101
A 4.234972760131674 -6.2098734944038778 -12.478202493236314
A 5.5007501598026733 -7.0785558691652861 13.351200167784917
A 6.6622921748620847 -4.807683656634457 -13.084292580520328
A 0.84271878866907257 -7.9229273765571655 -13.463558434159294
A 7.367939020890363 -2.7290887578603158 14.702953007969477
A 6.5244720323887435 -8.1837812371174454 -14.091897582960383
A 9.0491077043100265 -3.3242854867314096 -14.053912417087059
A 9.0557539691903326 -6.2309002321946867 11.814478540508315
A 8.3373836379825761 -7.3882191645771895 -13.642668245866385
A 11.344482322524454 -7.1283592391524069 -10.738643616545241
A 7.7811779516053861 -4.2612467780806673 -13.333771826886862
A 6.6127518652410853 -7.8954528636794192 13.410713428233926
A 4.0649905910212789 -5.6102075537869807 14.131996904401586
A 13.431119908736104 -3.8258392206408764 -10.859632615190085
A 10.816938842095711 -3.7374522863724597 -14.610503333419624
A 11.449034459471841 -5.1519558077407908 -12.385384086219636
A 14.385527344547256 -6.0308545634607169 14.350533282105518
A 14.457010010410835 -7.8657494589738679 12.484591177370298
A 10.701117470416895 -6.2751132718778466 13.720917508711885
A -14.885127664914885 -5.7830744299135075 14.931691314479416
A 9.6562904065686936 -4.5582916522654413 -14.742161960239232
A 11.190627843665927 -12.528642611965058 14.14540678829793
A 12.328385096629201 -7.5409566943465318 -14.600995656713321
A 12.588710349492436 -9.7376254471325527 14.918999769793515
A -14.440487094622492 -4.6147344433648962 13.294569301062108
A 14.532958991844959 -3.4564557666575229 -10.52071451434985
A -13.973551381862773 -2.4283008419074679 12.418918644776955
A -10.279221220306306 -5.5638424320480517 -12.681000994290811
A -11.29200501564681 -3.2665361587267574 -9.3153762586823614
A -12.98421819299424 -3.3674808476262172 -11.063766072909507
A -8.619184965469028 -1.88235782597056 -12.363590507595909
A -13.599265581171732 -5.9256652260255089 -14.209307273230506
A -11.325764778861345 -3.5442977132646019 -13.997730656321549
A -12.155524187278408 -5.9081882072409915 -14.899826969775861
A -10.354236213042002 -0.73973176738922475 -13.586420240496787
A -9.2464911828560599 -2.1415933716022395 14.502944394981428
A -10.747541561722812 -8.5482428629526837 -14.337147101556649
A -9.2559944099769176 -4.4894296882364833 -14.007278403110993
A -12.659990533795606 -2.5376575020119181 -13.337096266503337
A -10.15616321926146 -3.6977060292546557 -13.580785869920447
A -7.8491715511919304 -6.7809178601541431 -12.466937184091854
A -10.017927958573797 -4.0583527201168579 12.574678717918534
A -6.7341170490695967 -3.7101806843177303 -12.049905853901191
A -5.4607047089224423 -4.3308823905577709 12.639313891701015
A -5.1562281402650596 -2.3036934276576231 12.979240143110449
A -8.778243160982889 -3.9112316442304693 -12.068424339272488
A -6.672587665248467 -7.3615646657788538 -14.920121993035602
A -7.7053350240430349 -4.2980427414735125 -14.332289287214849
A -7.7338075945413074 -2.102051237022005 -11.107460183994528
A -7.0558920408206323 -4.8474666396217865 -12.403952443760552
A -3.2133827852177252 -3.4142968743280098 14.762949721460435
A -5.9905997854418818 -5.0614094849234794 -12.418872984731964
A -5.2988687014200497 -2.9077203554031428 -13.978875911784645
A -3.6966993598682598 -11.899840122531744 -12.304219424330277
A -5.886564338790647 -0.7662665891524667 11.571582796203444
A -1.3614489518698323 -0.41657661251659256 13.677769835038987
A -2.1311607535005535 -2.2459049179090829 14.820165444325403
A -4.1021757103101075 -7.1870145637412133 -11.164331761403018
A -3.6629893690415889 -6.2109705017500518 14.829283015546022
A -1.0425045526695293 -5.0072224915761812 -14.090316049800288
A 1.514614749494795 -1.622964936133227 -14.517577139660595
A -2.8309436831224288 -4.0185026594856739 -11.669533952918457
A -0.70016135719456385 -4.8004807089745771 14.386954058886605
A -0.74572802017520134 -3.2208660745563877 -14.716170933818537
A 0.96289292480785293 -2.9260974027882765 -12.686017363727895
A 2.6963491642585864 -1.7634058105835009 -10.927932104391646
A -0.8944508606921967 -7.4703088313725639 -14.507302378732026
A 3.5959841448835204 -4.9901778240765218 14.863717992284274
A 2.5614014946576344 1.8860923726728303 -12.355307753134152
A 4.4834442946771906 -5.0855234812908012 -14.823978034892862
A 0.73726413092543985 -9.1479736249160037 -13.199020538576134
A 5.1520213143500664 -2.160395733340045 -13.289066661725709
A 6.7782247744609387 -3.5202685208764333 14.531847785927246
A 2.8838159846994253 -5.8317773956358909 -13.026371510071639
A 2.6577904066013214 -4.1957887438617805 -12.654689140827568
A 5.6986399274715973 -5.1035133379275033 14.23331632130396
A 3.8884949808676992 -5.7489499693285424 -13.908357653511608
A 7.1239437495270712 -5.2571098307425448 -14.533358479737821
A 4.9674648941320001 -0.72883237746980611 -15.068052529624246
A 12.326086813011916 -5.9220440640430345 -12.771469679175178
A 7.8102902427443892 -4.4388613940391899 15.034449871965576
A 8.376469947737176 -3.8713739133181209 -12.453495565236437
A 7.1181933923908316 -0.82415289481506182 13.197609846139137