ITEM: TIMESTEP
3
ITEM: NUMBER OF ATOMS
23328
ITEM: BOX BOUNDS pp pp pp
-15.08190489966774 15.08190489966774
-15.08190489966774 15.08190489966774
-15.08190489966774 15.08190489966774
ITEM: ATOMS type x y z
A 13.295875500016315 -13.702763110146547 14.602062133463535
A -11.04059854442551 -14.899913357630668 -14.813021923146115
A 11.112207231389313 -14.254217507903594 -13.684229296912875
A -12.890146127496372 10.522226510266265 11.466820270780445
A 14.283759094346253 -13.138439161089792 -13.73986222031111
A -14.494882308913361 -13.443978012978349 -14.127395443556358
A -13.497343507826699 14.016806207417183 -14.606654292478064
A -11.554212253699347 -14.128652546947183 14.601849219485043
A -12.537799401697065 -11.918450979637866 -11.987837036842352
A -12.647040554122954 -12.145386280164892 -13.496006275181998
A -13.442440982890838 -11.251608496937777 -13.999823115526901
A -11.679929375246315 14.814119981345522 14.611404466432408
A -10.160013565725587 -14.898885398529528 -14.294597852478512
A -6.7633292331528345 -14.241895729856582 -11.763006611714482
A -10.653376943508464 -11.623356981375867 -11.859259286777908
A -10.130670352378925 -14.332381371832023 -11.968783627766229
A -9.2177062507805747 -13.219834262726575 13.799423882076887
A -10.209945117760368 -11.0640689350597 -14.184883269923263
A -9.0734813108750032 -12.035723355817225 -12.05114783095293
A -10.548579508153665 -13.423797676784197 -14.133311833224276
A -8.9366678950109026 -14.436989577477009 13.781615018114124
A -11.184990124499413 -12.041040787608004 12.61754000693049
A -11.069519662308974 -13.404380285845408 -15.025525762232519
A -4.3054658381634292 -14.931179492244977 -12.77329928126465
A -5.7890486993758747 -14.337164376619349 -13.905980120860608
A -2.9331860490692936 -10.74325012771749 -10.175542063881812
A -2.2981498952352784 -14.603072175972477 -14.693710690751493
A -5.4074015869850562 13.486455647678699 -14.377463735003216
A -2.3519548902230172 14.568324045115913 13.286552780605049
A -0.74776575854893967 -13.615385147077031 14.161777128708422
A -3.5570027157186308 -11.754779501419366 13.771346069852694
A -1.3287492505734178 13.157485937748433 -12.991457670177454
A -1.5981425448457016 13.808300008488789 -13.842086973451977
A -1.8471401114943411 14.647958420502347 -14.345622997978941
A -0.93697907491808274 12.378059145299741 -14.996939854184397
A -1.0071471721553935 -14.53987689391726 14.509480419318903
A 0.41654499464116507 14.344978373459615 13.796414527864723
A 2.3391764305489278 -14.903105434454456 13.331820059935328
A 0.09307731665737419 -13.394780263406965 -13.886946390991236
A 4.1903178532739362 13.40252310178639 -13.393251192547023
A 5.2694231935786568 14.143784004078729 -13.746890065936078
A 5.2857380592892067 15.037501693735885 13.825242115356172
A 5.0570482268294699 13.539428742668363 -11.460919170980585
A 2.4982967965712719 13.178089884299471 -12.59673791284602
A 2.3821173070846831 12.918382861269784 12.828571949651483
A 8.4388657279051049 -14.69998902355762 14.212026651023965
A 1.1355941620632413 -14.944030086087691 -10.019776581122036
A 2.9308650612838729 12.889753658911332 -11.046937435737368
A 9.0464651506604277 -14.30037029119314 13.29805318677171
A 8.8749912807592644 14.471588616594568 14.769522394818294
A 6.3941460641758949 -13.07639990483875 13.734130393452482
A 7.2612171974982784 14.032340033299064 -13.191296462096041
A 7.4676258591299387 -13.233872337703746 13.846613083463847
A 8.3341471535644445 13.812708463407116 -14.743492462997891
A 7.2540633222394062 14.746531899112627 -14.052004997013031
A 7.6989949453875557 -14.059536536028654 14.613341633937745
A 10.586018202872541 -14.56800672691911 11.681937008015222
A 8.422800370834965 14.798434881998787 -14.436351408218909
A 9.1223202850515523 -13.598691082917007 -12.439995186681228
A 7.4070010396019024 14.280218897428778 -12.1911762078996
A 12.079730722416055 -13.286674301067389 14.834658347413454
A 12.347514650246437 -11.828199127176756 14.827052336879991
A 9.007463279389901 -13.325843575852192 -13.946668934611141
A 8.1887880414577499 -11.997311520424887 -12.235905118207548
A 13.207726294467644 -14.486521415340546 -14.85764141739838
A 13.982298887400379 14.83214897019821 14.043140146015446
A 13.414270579723198 -11.283637831205009 -13.936942592670064
A 10.086772421130458 -13.839685235011725 -11.404864084804839
A 14.548460035241437 13.478974283925243 13.877474324601099
A 14.151206748151521 -14.753840905603317 -14.25610080409192
A 11.349152164688183 -11.573173234606481 -12.283296827201658
A 13.697833750379832 -8.2557155173522165 14.07324355242736
A -14.166290446452637 -12.247070225692323 -14.290364519000731
A -14.467163998365324 -10.945064313534182 -13.999602030313344
A -14.220207745919053 -9.2845518561367104 -13.908319673169087
A 13.278451898111729 -13.215324652479797 12.927273565189257
A -13.293729722488489 -8.8443061644576826 -13.949421435317571
A 14.846267532561104 -12.852289681349323 -14.803092034296411
A -11.008053292862344 -13.011949618369735 -13.268255328850131
A -13.188497728273862 -13.288632138396196 -14.327939159192713
A -9.8728715237707867 13.75107825024698 14.031257653295981
A -9.1405996290398228 -11.130892589726047 -13.836171876504206
A -12.960298073165006 -14.38524450493443 -10.458986898773448
A -13.6312795080811 -11.880258171788224 14.781788622854114
A -10.900497575158976 -13.90277614147691 -12.799781870600912
A -9.0976664767745348 -10.442688525614418 -11.723917016956717
A -10.80225529584191 -10.113506055973446 -13.375234969527028
A -7.3606962718721292 -10.421533177728669 -14.840902189117742
A -7.7682424396192911 -11.220815982540831 -14.210894937952201
A -7.9596161044672602 -12.370945153856626 -13.052978576055999
A -4.8600322088563468 -13.554330011810096 -11.783577456281382
A -7.9832302326699383 -13.635173222334162 -11.410217656059322
A -7.2445913800716113 -11.701976869428417 14.00200474090947
A -7.1141357200124675 -13.703407576674381 14.163984823330003
A -9.9041361440635711 -11.258552832821788 13.716550520091229
A -6.7046362933976615 -13.033168922172971 -15.053839020567247
A -5.1994831686183289 -13.046904878333264 13.903851659588703
A -6.0496562098462929 -13.531210141309836 14.270545685581428
A -2.8031950198987743 -11.64309725688196 -14.677712783140359
A -7.0874124502720264 14.952440495272382 13.529279091547348
A -2.1006164705178154 -11.104903931646536 15.0064809621667
A -3.4676556070897218 -11.431716786584234 -10.973649649519682
A 0.44052236437222608 -12.580623525835575 14.48705508738233
A -4.1345379503841988 -14.279557296629886 -11.985625456267829
A -2.0746575336667128 -10.221881825178059 -14.156892890534987
A 1.0108687158299885 -11.189993657331035 -12.852356228032354
A -0.48419647976344021 -13.920651616334169 -15.031631091456891
A 1.465448905272049 -8.086940644815753 -12.639821765425564
A -4.4116617156428939 -14.369927256748207 12.748506136957484
A 1.4663787721509591 -13.249126756101722 12.895186602533389
A -0.55778090388002566 -11.735063538062407 -13.293517424595345
A 2.3179337522326651 -13.289513183906999 -14.477055644200293
A 0.1954323644837416 14.613522804232419 11.393191208976219
A 3.2145321339972011 -13.849166227109913 -13.759985268602698
A 2.2712759335076771 -13.783766379141362 -13.424050972911822
A 3.344406602356548 -12.837487118814579 -14.021362735930349
A 4.928029936610411 15.059220105974214 -14.360273696400101
A 1.8216191500697128 -11.207702842527093 -13.944095202220259
A 2.6920409697087555 -10.225600900895094 14.745132415637457
A 2.9894700464540453 -12.518295291693923 -14.938067698851263
A 7.6567230467611775 -10.011598870596849 11.483387907029869
A 3.070578229156121 -11.159291041126437 -12.594497627786486
A 2.6831520673459246 -10.337770701621219 -14.303950138926472
A 7.1133659097215327 -14.392093393992454 -14.79511392420239
A 8.0632121949623539 -12.81316554221207 14.727981568011181
A 8.8032639862638575 -11.909913454765592 -13.788248593656679
A 5.0658136903608373 -13.379556508550582 -11.653876478485518
A 9.042255961063475 -10.977877800897938 -13.020017808693407
A 7.6717306273214039 -11.75569413238925 14.903396830527203
A 11.832612580465803 -10.590977985533144 -12.687062853305044
A 3.2537564914975623 -13.492563614485309 -14.799116389235841
A 10.170567226894599 -13.585230419505386 11.111510784254367
A 8.8289521903782191 -13.393301319012084 -14.964519096258755
A -14.885013158161531 -12.053851346112102 -13.583250333882217
A 10.566454292118243 -11.452278702999584 14.134746980682795
A 8.1683199951195622 -13.063651046019766 -12.435054536546833
A 14.240313083370667 -13.778751139435299 -14.612911597902212
A 14.213673007689716 -13.284325642322004 14.614899152908306
A 15.044786308626085 -9.6331283244276058 -13.347142407484052
A 12.046982828223561 -9.3281450683879807 -11.444867179392986
A 14.689317728318549 -14.711811768042844 13.422364169155099
A -13.297103939505266 -12.265092917346017 -12.562836942305688
A 13.269907630434396 -11.653643259486516 -11.543902647330704
A -11.873063855259467 -13.093521010346205 -12.716696495913215
A -14.565767784989992 -11.685152644179825 12.338787790240787
A -14.163303702862136 -10.716921543020712 14.138330933805801
A -14.957783372336793 -11.813937670015696 -11.654038882409397
A -12.896008264789296 -12.148638540863795 -14.554289917797108
A -13.40601346364285 -11.186447300005751 -12.233868358076551
A -11.673841238647253 -10.018473222124777 -13.883726710847032
A -14.898183131862016 -8.2826890596039817 -12.669285011998058
A -7.2869667156727234 -10.421370439431282 -13.609493365865973
A -13.16402074063887 -9.8905563863403838 13.445534577119215
A -7.3249780306099179 -9.2265186543558002 -13.090256125686883
A -11.858570313123364 -10.649756735769959 14.671217074592688
A -10.072212218696285 -9.0325203833984968 -11.972472327317139
A -10.787064241682248 -11.924055090055568 -14.477710720689839
A -6.3246487373846918 -10.649222479660207 14.947673070357817
A -9.7309209101891891 -11.152522220301591 -12.143580889495182
A -8.4231181923098184 -8.8292880793989976 14.792598659417125
A -5.8975849300223659 -13.721483199121478 -10.820981672157824
A -6.7451576736998859 -8.2463123650190404 13.838406690401573
A -5.6420717194089995 -12.022141323840518 -12.735992063058241
A -7.724305382386647 -13.328540888617992 -14.811003499376296
A -4.6203090419158013 -11.22855152230558 -11.487262499284974
A -2.5391303748703224 -11.954351178213749 -11.328076337045598
A -3.5081691658032099 -8.3869215724239261 -15.021861206736073
A -2.5087285222169715 -13.244221641431945 14.799153961694323
A -6.4926892008624879 -10.885712280186681 -14.202999262150655
A -4.9299731209240614 -13.737446360102361 -13.007469449259668
A -3.3756512482353696 -12.471402451801191 -14.559831255903582
A -3.1296478312499594 -11.686574578047104 -12.740979532864303
A -1.152925816499661 -10.441230953621835 14.955700792071948
A -2.0962030115418209 -12.554255375348992 -14.524157413666313
A -4.5219163734091596 -11.197825920595246 -13.822744729343221
A -1.5408694588945615 -12.813152629408719 13.876760634539291
A 0.80844590658817772 -11.746837885846597 -14.705898721955865
A 0.70897428954685249 -11.199580297365783 13.33805279241032
A -4.2141642898450336 -10.970673024403766 13.230441733243623
A 0.6964482393885324 -12.548080669851053 -14.02495403852507
A 1.6435214742893394 -14.214134907391058 12.663183751388136
A 0.38032171757017047 -9.7086697712221071 14.651219721120388
A 1.7605403076223956 -11.677960518607019 13.099407362899335
A 2.436139726345278 -14.515141274212731 14.392106356928252
A 2.7463522748122262 -11.842819893322803 12.843415405585279
A 3.3894521353971316 -10.900241902223375 13.877395655565568
A 1.1558235888769914 -9.6440063891313308 -14.85579364406194
A 1.9441196950376087 -12.253070341519567 -14.506884588760425
A 0.29077892113279113 -13.262926492101583 -14.898870080959677
A 5.6594953687434808 -10.937167793204377 -14.724403106017622
A 3.8076871623668911 -10.665803091880299 -14.531717143053163
A 1.495824532733248 -12.19451084460322 -13.488799457008044
A 3.4756241460721173 -11.910657519784575 -11.595470469757926
A 7.4243494329797173 -10.294156528677785 13.65030241954501
A 1.7750540705420492 -10.863002652516732 -14.896382978095936
A 6.1887361358441675 -11.805729327797708 -11.41586218076257
A 4.9706332048844395 -10.64082850805476 -12.268643058378858
A 5.5557171264548284 -9.8533800825036728 -12.644728573835399
A 7.3065034122702111 -10.164742230624864 -14.128208298503834
A 11.41082346171436 -10.703459187839366 -11.631162950169294
A 7.2186821768295086 -10.656287107017599 -11.78603152815422
A 8.8637426862886493 -12.293986652799756 14.360952819396129
A 8.0364029187762451 -10.689014088115099 -13.602645168995736
A 8.0818024496167524 -10.417847776191396 14.427922048870069
A 9.2371733566086398 -11.589647537419818 -12.152898185331704
A 12.497591770299479 -9.3823384895933764 -14.418223633019201
A 11.680360010355454 -10.020576476163841 14.416641033027322
A 10.263446973512854 -11.871979619749098 13.171960115081951
A 13.589664982524043 -11.378752430534849 12.584750097356416
A 13.991605683085872 -8.0677501967560925 -12.218623097935385
A 13.833248603248807 -12.034949071932081 -14.951963251494544
A 14.462635803937502 -8.9089055685673024 -12.945740190273433
A -13.950062876101349 -13.885456791298214 -13.367962442986785
A -13.972168513231289 -9.5411262286129386 -12.971778885943097
A -14.805724441708152 -12.580775675118041 -9.9538596210795838
A 13.897776084561588 -9.622607285335441 -12.208276533476248
A -12.899701974613354 -10.240075943264756 -13.286908823463055
A -13.262395750877188 -7.7263867963595976 13.845755987386358
A 13.635902464199479 -8.3266438935331326 -13.200853235618926
A -14.33721278437347 -9.760884675079943 -11.218629857999648
A -11.51303618263759 -8.3482634976625274 14.543306348307512
A -8.6933063892056346 -9.3958300359738018 -13.573308173726465
A -11.861853052350595 -9.2407301565930915 -13.223308736286059
A -14.160043911524626 -8.3593034852506953 -14.315271539519056
A -9.761494580085083 -10.306113173604487 -15.053927356956772
A -8.3857634040922058 -9.8828561129108525 -12.688371492551887
A -12.230308263182566 -6.520525773356038 -14.474686806488119
A -9.015636240485108 -8.7490892894630061 -14.307743901327569
A -9.4293664117144793 -8.6623518217720203 14.527652948216591
A -6.3559305951941463 -6.7619880895736282 -13.472486001600831
A -8.9143678707466272 -11.271978154826815 -12.763901332564402
A -5.2075242723925301 -9.6754300704804912 -14.182713888244853
A -5.3575588211496026 -8.4945490764844216 -14.098166482491278
A -5.480073750087346 -7.7641875002965479 -13.348944748997367
A -6.6705316549619011 -9.4958419355768342 14.71505973327011
A -6.6030988221838482 -11.846079581476291 -12.277894281452538
A -5.0796116268565301 -11.99858596436952 -13.563377437958179
A -3.3261180733059197 -10.195136268337761 -13.542590432958574
A -0.85781811125730734 -9.1874182597507996 -11.9696423772565
A -6.1252843984837808 -9.4450178166584902 -12.446210348725055
A -1.5341105107129671 -9.4236087172248606 15.040398379776622
A -2.3836019301258462 -11.300127147580236 -12.137519847661199
A -1.7097284637758781 -9.4515588264967185 -13.304246063789769
A 0.82369973645588235 -10.291948110772854 13.94607730370409
A -3.4814067899510581 -9.4466223174394308 13.844886667400164
A -2.3689228442692727 -12.530522913120848 -10.484132510288104
A 0.45733760827216441 -4.192617767202103 -15.00369102390477
A 0.86126802381866674 -12.235601717646814 13.148648698970725
A -4.3258849040180145 -10.228015633652852 -14.148482790233937
A -2.787952321514843 -10.323704956656661 14.529814217790461
A -2.7760528914291789 -9.7014459839576137 -14.816359077978149
A -1.7830703185502332 -10.022405355567585 14.217774731839784
A 1.2917080840521458 -10.477444900571141 11.743057104974127
A 0.77484932993886091 -7.6364283256748253 11.736505217915145
A -0.81411053190045846 -6.8151401272268828 -14.851795908458691
A -1.0518026049310689 -10.021456070279008 -14.157596807648932
A 0.20338543798596348 -5.2836440638799473 13.31065610629998
A 6.2780123286452785 -7.3263023391357436 -11.517012330418373
A 3.3177819404736995 -8.9095450864334467 -11.972641018529245
A 1.0077268741834329 -8.919405474541751 14.276972568791845
A 4.3423345836403611 -8.1191086110322139 14.605382727534554
A 0.30572954909426514 -7.8561000023009955 -12.382148061308857
A 4.1709627456176692 -10.562876398536622 12.624987253182155
A 3.2790637122892492 -8.357820618904455 -14.453315116763124
A 2.3364952113038107 -6.5658711505074967 -13.709500121031104
A 7.221333865225307 -9.3711085607797493 13.309626918556319
A 6.6308618307162455 -9.8505605722356684 14.174455292352
A 6.8830528277276048 -12.21008214905474 -14.670472719468853
A 8.631934821135296 -9.6906064642712675 14.93869608363989
A 10.417686427260819 -11.328345567577484 -13.064700803775457
A 6.3223529375378682 -12.495823191731684 -13.042139833579972
A 6.9955741322444611 -10.757686456442411 14.549690032480656
A 12.743727016267524 -8.5434784814006903 13.905264825547395
A 8.4236387677102869 -9.0103661021803312 -14.473824779695732
A 10.124239792866986 -7.9788589059149961 -15.008104832013013
A 12.486948981152876 -8.2403844178662737 -14.770406605849454
A 12.908039566804334 -10.057290163527883 -12.732536557609361
A 11.03091058474333 -5.039774533499366 14.119594924478179
A 13.055797705748464 -10.142561768913952 -14.874555303588696
A 10.096374950613994 -9.5045686156513316 -12.50637318034704
A 11.350791007531125 -5.6865865509392082 11.082152556139093
A 14.61625364121673 -11.201962079095942 14.675672053249462
A 10.76719391179385 -7.4154685371218427 -12.424747994402436
A 12.562940332056623 -11.328645029421603 -14.470836633479628
A -13.600060108579246 -8.8360087855246636 13.270464255866461
A -13.784475437829769 -5.0366419184092628 -13.931475464133003
A 13.993659402247994 -9.3883264640041819 -13.820156340475505
A -13.562838382714396 -6.5855625391978352 -14.509091584560888
A -12.853188270011801 -6.4111133547858534 -13.699866739489138
A -14.444918744139178 -8.9497450249201922 14.934566025367172
A -12.885319465348402 -5.75775621582219 -14.595686233744773
A -13.645467937207625 -6.7637692152677529 13.808325424818612
A -12.827255140832063 -10.832831403379799 13.15450919012007
A -13.481287102951253 -6.9979039505924723 12.488917888639346
A -10.747941515620692 -5.6964128480970651 14.621562170014348
A -13.631329624448144 -10.175455341388316 -12.273459145283359
A -13.235547398189421 -7.1038780268678545 14.830577335325508
A -10.415815985213067 -7.1192937760706032 -12.094793991146723
A -10.932294374666988 -6.9998827718656793 13.160374397841313
A -10.799429491973346 -8.3653937608054552 -14.714532906770971
A -7.7216813081049542 -9.5676554938580161 14.903018612027637
A -10.135786133994193 -8.120161320824451 -12.584798410798616
A -6.2129503754855602 -7.7249453849952872 -14.090184387923141
A -6.0726594441052217 -8.9574086568866562 -14.688489433171663
A -8.7734118665638459 -10.320139806099057 13.457274113325788
A -7.8608797033830724 -6.9196132147887672 -15.081118593308249
A -6.3406382493831854 -9.3148826351137206 -11.372765282374694
A -4.9363588344310863 -6.8585784629203062 -11.384828051560543
A -6.6487944208149869 -6.717704851503087 -14.502437740477461
A -5.3563775285159574 -7.6702936433466764 -14.692579090596299
A -6.625890061302969 -8.3520996094089455 -11.204982540323286
A -4.8560211003546296 -8.4722119209859699 -12.978514793769822
A -2.9917889739130339 -8.2085486705286979 14.247095255612882
A -3.807687809142779 -6.8354443558912097 -12.257300405009458
A -1.8597262386874662 -10.422880251668451 -12.325345841760022
A -2.5040801577399381 -7.7487930168377508 -10.804902244307597
A -3.34776964257011 -7.8954569708740499 -13.087032628390672
A -1.535111958492104 -5.3247322580591323 -13.51762767853122
A 0.81494594435701517 -8.9677752865195544 -12.533305073822399
A -0.19066570019399035 -8.8578295948048815 -12.768707818747869
A -1.9214091205331145 -8.3081400106082341 14.331403920278531
A 1.7143169177234665 -7.3928495734386868 -14.447130643965348
A -0.89672058521219289 -6.8152485071838242 -11.742855513402903
A -1.5354663327124958 -7.4483815928645694 -12.853874136285466
A -2.3929754065273316 -8.7182134223139656 -14.949416890770246
A -0.58918722785966782 -4.1728193568861043 -15.043305730543459
A 1.3276880328519713 -4.5689588110622292 14.608733684504726
A 1.5847246023016757 -4.3958095268568567 -13.619037303873863
A 4.7145960373211953 -7.0303593876223758 13.272629579815611
A 2.1460487629399756 -8.6918920809187625 12.957694676396883
A 4.3432037557039642 -7.4228618858284774 -14.809265538391154
A -0.26396492553228779 -3.955339306634869 13.33598144266476
A 4.5299103609439104 -8.8649427530468401 12.728104126537563
A 1.7562264283545186 -5.4699011009316676 14.742511259079581
A 2.1334565988317018 -7.3362586452157386 13.028614141109824
A 2.5099179450358839 -9.4841092267994718 -13.618890106322425
A 3.3060570470553383 -7.6997237219981054 14.75047148090178
A 3.9523730415545906 -5.4171689620425605 -15.02244413572209
A 6.0816655778227879 -12.668214986648913 14.643583162093499
A 8.6651845278315864 -6.9797370121058346 -13.512254363689332
A 7.7769367988593485 -6.6745176232513854 -14.167135868090085
A 7.3077439150763714 -8.0915231382605839 -13.451669608021193
A 6.6475544928777817 -6.9954448704692664 -13.037833858938763
A 7.5255935837191235 -9.1711996988667348 -13.984640113324968
A 9.3226531609194936 -7.7905369780776139 14.499981213644121
A 10.178266018182919 -8.6938296669152315 14.398142407214902
A 7.9030799212612726 -5.6815718239960162 -14.418496890120354
A 10.340486330657196 -8.9640958324751043 -14.465955145757544
A 9.3968445952672415 -8.7171002798164903 -15.044626525912374
A 12.228255556769046 -5.6581644862274718 -13.439973923195515
A 7.9847638871308986 -6.4132069412829633 14.981038299235014
A 8.9656065005042436 -7.9427510540386637 -13.506873380133417
A 14.904342412015744 -8.3196609580853629 14.245914811241633
A 11.45088631681069 -6.2633949136456257 -14.18721178476296
A 13.087039744463739 -3.0072851198214754 -11.866902122344944
A 12.953068528805076 -8.4430985059781953 -12.270009921729345
A 14.266735304574338 -8.144410201379257 -14.086318393184962
A -13.974516336907971 -6.5206279433263088 -13.309093302336368
A -14.206477283966819 -3.96502780434535 -12.285651722656452
A -12.531168546215437 -8.3856875643662008 -13.314369843548517
A -14.621087135512132 -5.9614656661970065 -14.052324834259641
A -13.593586060426338 -4.9153213292237128 12.181289318246158
A 13.840529076207154 -3.7365326223520841 -12.453984146854854
A -14.867088804106128 -5.7956704949003655 14.529604988102173
A -11.482878528159462 -5.1244703758095955 13.970338086159419
A -14.338484967189411 -4.9896810417212905 13.317404002595293
A -11.602353962034591 -5.5030250179266629 -14.885628356127462
A -14.295711821887062 -6.6300792475497774 13.015444183271949
A -11.639057556923207 -7.6337746649587128 -14.874809850318817
A -14.316966808086368 -6.8000271746990499 14.80710669029075
A -12.36286460895418 -5.4999043844807209 -12.000610115652092
A -11.429850931666202 -8.8867207308082552 -14.102358999977046
A -8.4581286803825932 -7.2572203324431692 -13.757849210659264
A -9.5606866902311989 -5.2981375947716147 -12.83030041056724
A -7.7339434843351977 -2.2692685264686747 -12.015189301464623
A -4.4017578331075793 -5.1361821755816637 -12.825827882574504
A -8.2001113290435477 -4.944753204773364 13.66897206209164
A -8.6605415999994495 -7.5995319037667874 -14.736751026547049
A -7.1400215195635477 -4.4292483260495867 12.872863668725916
A -6.2594903061726468 -9.8146056081230455 -10.423139353066487
A -6.9257752927480407 -3.2633936920628708 14.096448894544235
A -4.3343509809140501 -9.3926262022515363 -13.398405087008175
A -8.3301730081352154 -4.3910269044789336 14.53316103251921
A -5.8475937168123675 -6.1398349955806726 -14.288969448631871
A -3.6432462113598461 -5.2201218807550243 -11.626513077205438
A -3.9711489639555904 -3.4920233032711878 -12.69652616825042
A -5.858213008599674 -8.4731634746064657 -11.913061092369716
A -5.6600437556158587 -4.9568440050081435 -11.161859200996931
A -4.731787612854772 -6.9872603811125433 -13.926792295287624
A -1.4610376421135829 -1.2153045609239905 14.789322095341168
A -1.0852726511796533 1.1027115348278398 -13.239279612368746
A -5.3207070626725699 -5.8965666762221698 -10.924797066568123
A -2.2917210089610278 -6.8292782381613266 14.775844706948481
A -2.7885763546670286 -2.2378172426356691 14.345895081207178
A -1.5229943087347995 -7.847780526437524 -14.76368417243196
A 1.7424956802054756 -6.2888937636147633 -11.072209195411071
A -0.12049987554945041 -6.176112637541304 -10.044182711135944
A 1.338812602099883 -6.4630851032551462 14.80033883530378
A 2.288536729962463 -5.3258654603415643 -13.918383037623169
A 3.5656663273286715 -7.98459439375429 -13.536725605705699
A 2.3324484332692208 -3.9237997132030427 14.699958379460124
A 3.1627002006744935 -8.1547442431873502 -12.636480072272462
A 2.4581847748592809 -4.8692754503432054 -12.973467882808187
A 4.4040541075171129 -4.5153255175979181 -14.897881409041663
A 1.66101078690941 -5.7248145383647389 13.40088424795438
A -0.02703841231178615 -5.2979576640486705 14.503593290250528
A 4.1258248236418087 -6.969454886828518 -11.598613037472729
A 5.5786012593065131 -6.4426418720491734 14.303754471367395
A 4.9609643460789075 -6.4091777293664132 -13.529892107813785
A 2.4410733388523367 -6.8814830108793714 14.978667067314031
A 7.2658481663254726 -2.3362235934842106 -14.274457217699572
A 6.1276331558347676 -7.8483136552333006 -14.518715389049081
A 8.3816240948117322 -4.6641953565912795 -14.566064781321579
A 9.3130211541373207 -6.1524853257272536 13.657872880497536
A 6.7336530758846518 -7.0732578658081637 -14.056896581999958
A 10.348969996976873 -7.0458546671819073 -11.56001858247415
A 8.8220560193774613 -7.5027306797180611 -12.58269827610612
A 7.4813333276257019 -7.8871646740033654 14.241215699064499
A 5.0068020507587416 -5.3710953059087965 14.362150865729408
A 12.855317750386696 -5.4613017072208025 -11.667278628981023
A 11.185022361393527 -4.1138423407236431 -14.135060882840746
A 12.935267695209802 -5.3162216562437647 -12.71803491075136
A 13.927736433778566 -5.3399563911605368 14.490562933067077
A 12.843224115150162 -6.3872540036914893 13.192203210188989
A 10.772224242779199 -5.709400994335371 -14.737482171188324
A 14.629716854052303 -7.2935588318120397 14.320619211680262
A 9.738829178508615 -5.9026727966368409 -14.395613927275816
A 13.297349557122484 -10.655458098552218 13.923524687667925
A 12.731169734601023 -7.9297625832233942 -13.485264592576065
A 14.156270187717755 -9.6226275993884727 -14.819813670063258
A -14.574372244228035 -4.9934763738711361 -14.59534808191812
A 14.667393999241749 -3.0472933466018555 -12.614104756661314
A -13.844055586144014 -3.1726962264492431 12.58368082177164
A -11.261987120203187 -4.4250182376551894 -13.480681901755377
A -12.289026782002789 -2.5791389821056541 -8.7772553270864453
A -12.567812604577306 -4.6649860593859698 -9.9389523619080435
A -8.8001896027181274 -3.4762270948559792 -14.253255705511748
A -12.198989957344123 -4.5152276212563782 -13.992378623585052
A -12.211820372994007 -4.7701185338529726 -12.954696024447605
A -11.348136180539946 -5.426577521599051 -12.432899834292632
A -12.379436706720975 0.11332419412170773 -14.37881827406629
A -8.9543596949781339 -1.7665061939190996 -14.75075309127206
A -10.037122046686306 -7.8920385421764951 -13.747458069640286
A -7.8174072409334689 -4.3026145206488318 -14.63298617335019
A -11.309401785920409 -4.3753846259553679 -12.367722479450784
A -10.904568482988585 -4.8424162291864912 -14.58038209843026
A -8.7586545398716265 -6.6286669704249563 -11.904222489918757
A -9.9353536496536456 -3.8640005537457629 14.30266005749103
A -6.6044947774202409 -3.9174659450103095 -12.004823992226722
A -5.2711699394396661 -4.0309886859191666 13.743773321021603
A -6.5792980734748303 -2.2433067127998125 13.948050428305311
A -8.8660612448637579 -3.9733093843635623 -11.662857959530299
A -5.9962842089512645 -7.0195693503148844 14.814646814707602
A -7.2865632798055255 -4.4267829594195831 -13.574626090358345
A -8.0220586900687927 -2.6022446948239275 -12.91366415981823
A -6.3883109344805389 -5.5954222477750735 -11.808044592657554
A -3.8391172412090642 -3.0228266153996479 -14.515443343495461
A -5.3171160131903648 -5.0637239583288798 -13.411821262619519
A -5.2985793359336197 -3.0800127560769615 -14.69548270652839
A -4.7373015731861834 -11.36750524800525 -12.50527021450157
A -4.5876400798832258 -0.1024685359454325 13.175372309828997
A -3.7220709695649972 -1.4296153017818405 12.955415932985144
A -4.1042714216498108 -2.3504367971584195 14.850028305402281
A -3.7574585309080608 -6.5598055565625639 -13.575162586428698
A -2.040767260165675 -4.6836047277856308 15.01315566362643
A -0.6379409195241702 -3.7894401641009252 -13.991764924336065
A 2.1853214387474234 -0.18651720642730105 -14.229063243381168
A -2.1031599448168357 -4.650728062954701 -13.034353530102077
A 0.22325051940330604 -4.3589742811390026 14.168790572160241
A 0.81719863650679569 -3.4795985248237487 14.466165133586212
A 0.7020964446168666 -3.0518308535489407 -12.347346901023187
A 1.9509359906821775 -3.2384337959654674 -12.691326031237804
A -0.16058795714964258 -7.0455857494435117 -13.780166880178504
A 4.3397578079336174 -3.5911293620952036 14.4796903984177
A 3.4246056491189223 1.4276499818175168 -11.804707910349801
A 5.1151786185330019 -3.830261319022616 -14.627017731402363
A 2.3651361119375158 -8.3838207291814992 -14.996533955867259
A 5.1681932383323002 -2.9360899249410939 -14.098761860651363
A 6.4552871242469161 -3.0021143131833927 -13.431939814583565
A 3.1398331797385328 -5.736996327786513 -13.409783804296142
A 3.3226853307339121 -3.4806047615901519 -13.62425018856533
A 4.9645335841259843 -4.2659971420747897 14.074762279336731
A 3.9645357572218054 -3.5615847355125934 -12.759250721943818
A 7.3172731707654464 -4.7774033510317251 -14.472419312253853
A 5.399711622123843 -2.4140338491496114 13.264794374560438
A 11.341744058683107 -6.1400603314004023 -13.14813151146987
A 6.9179081524240003 -3.2845362420238469 14.942383624565917
A 8.272881317040083 -4.183331860807578 -13.299316334098817
A 6.7631275266292716 -1.0383759472101632 13.118386665141813