ITEM: TIMESTEP
2
ITEM: NUMBER OF ATOMS
23328
ITEM: BOX BOUNDS pp pp pp
-15.08190489966774 15.08190489966774
-15.08190489966774 15.08190489966774
-15.08190489966774 15.08190489966774
ITEM: ATOMS type x y z
A 14.032651702033526 -13.74149562289251 14.663729626774712
A -11.725102073380624 -14.677283760126892 -12.716980137111964
A 12.184904921865733 14.781225681697796 -13.393311611132635
A -13.501299213777152 10.480243016272372 12.004569773916536
A 14.606804307160941 -14.767545224339246 -13.920160338314719
A -12.3459779605382 -13.982893102993886 -14.609018153196274
A -14.93967117139003 13.448522627245563 -13.967783141477996
A -12.061237496648049 -14.238126284432596 -13.555799690488012
A -12.365897893295408 -12.183958164938133 -11.703192746042465
A -12.711647841636967 -12.228354406096411 -12.933030414234276
A -13.106005673087518 -10.544701304221556 -14.083800777812087
A -10.878741694709776 -13.988975394666671 -13.303004581211983
A -9.5549478372078394 -14.840002160836461 -13.650849860322547
A -7.9711349071572251 -14.451816844662599 -13.192467831087047
A -9.4504128691041345 -12.289556784553357 -11.622826975349479
A -11.1282294440106 -13.622810568843649 -11.322656625214581
A -9.952853373087617 -14.217072352849435 14.333520685713404
A -10.112451484330053 -10.481447831222386 -14.072394268385848
A -8.6535415390798054 -12.22604648273914 -13.447049339797861
A -10.59800688468991 -12.743040881418704 -12.849323292425312
A -8.0630005622315544 -14.57086497396841 13.852034106009327
A -9.9648481700201472 -13.596149072116695 13.409892961069513
A -11.253804317674721 -14.18123160884849 -14.457608700696571
A -4.240899399569682 14.647750514525431 -11.590338949345279
A -4.9530428921116583 -14.911666390916464 -14.804271411043926
A -4.1011638761911584 -10.656014626354102 -12.18295492930468
A -3.4970773862426987 -14.412791935781589 -14.649507859078023
A -4.2455621968902646 12.773548048456053 -13.865537349701356
A -2.7239636833091336 14.164882864903225 13.700876578012547
A -0.052051834164052242 -13.668150209323873 14.699430209191663
A -3.376246554756094 -12.79430927402476 14.176218365596501
A -1.2019031734073446 14.167093253155949 -13.357264718838712
A -0.60999993758185511 -14.610952253374705 -14.292250998213056
A -2.1838437558604884 13.920325203180191 -13.212275123951731
A -0.90661897919693224 13.498217078597509 -14.084052353294842
A -1.5698677629343931 -14.262903012911517 -13.732590233279131
A -0.33221901278500304 14.428848886549543 14.507592703900052
A 2.4608573707166914 -13.776314674716367 13.741347849520185
A -0.44071602910358521 -13.440917946302651 -13.342978053001207
A 3.240508714461225 13.527277266539617 -14.257442231030369
A 4.3081095676155554 14.032222936153989 -13.171844038553704
A 5.4664732953905171 -14.397744832036587 13.532479941778064
A 4.1364280389767529 14.07046342681042 -12.179470109167339
A 2.693934309032783 13.248510505588289 -13.467288599901112
A 0.79251570667120452 12.863269222685162 14.297878386629852
A 8.6883509940538364 -14.558707189124664 14.287230017543525
A 2.5348178883073871 -14.696301881509093 -10.400114500622127
A 3.8181694232885559 13.11818260629234 -11.570166616529914
A 9.3194925601371086 -14.361724263870371 13.524037330052114
A 7.7153732590629254 14.835200021811966 13.354487943580551
A 6.2708153468240111 -12.269171758950121 14.990674298962565
A 7.4531575825846081 14.607307815222203 -14.705961494885212
A 7.4606639047048739 -14.577394929845385 14.126489359577675
A 8.8272742345986792 12.940462181848055 -13.625345496321181
A 5.1179738107565029 -14.548958957705311 -14.545660006650056
A 7.0870941933839013 -14.46324614080522 -14.920208090657455
A 11.589242251913088 -13.037823087262876 11.731449034186635
A 8.2677074203526875 -15.016082345346964 -13.269450659381004
A 8.0398418834989194 -13.718327483666446 -13.250631121740426
A 8.5258725141390421 14.542599344277436 -14.231481230560544
A 12.076175439318318 -14.952541104149581 13.283473725769586
A 13.715077760272186 -12.180511853374565 -14.444965131696126
A 8.2847507875446968 -12.905672697791621 -14.046723424065782
A 8.9834036598581051 -11.916147855696041 -13.120077783194693
A 13.192805137389898 -13.556945671068295 -14.776935660893963
A 13.477322144926944 -14.436761745046098 13.850192215214367
A 11.201943590433679 -12.464095109019548 -13.381389335678975
A 9.0637059451856334 -12.945886186496569 -13.337155771745595
A 14.854353142519136 14.048834346994518 12.465845502434743
A -14.997961834347816 14.410771351140973 -14.271197926228728
A 10.963778999983477 -11.413385066819037 -12.872349938290224
A 13.503379556459915 -9.2341173012154751 13.161678869730515
A -14.559107404494865 -12.991569046442963 -14.734473487759896
A -13.823304211655435 -10.916199726604248 -13.291960384395837
A -14.657294707650458 -10.30112070071737 -13.38311406996187
A 14.196216511095022 -13.056185490331474 -14.620854680500939
A -12.523701067395207 -9.1044097339579775 -14.029178019561888
A -14.803763318640607 -13.394170525811225 13.383852657659908
A -11.18419894755464 -11.935872401848968 -13.128933611838006
A -13.409369819885342 -12.145486167105682 -14.937388187922922
A -10.883112335521213 14.385352451181198 14.379501344814905
A -9.1209720059879782 -10.310185163463625 -14.089330400140064
A -12.783285347797655 -12.535563931007221 -10.844337434114587
A -12.324613320567279 -11.413560246943474 -14.801526584184591
A -11.827471023793048 -12.589254219409595 -12.522656981981088
A -9.1104398472795793 -10.182950248765152 -11.622355461624522
A -10.018065494516778 -10.631504409215051 -12.36914250855755
A -7.3163589049983413 -11.318896059121329 -14.599002699253498
A -7.5405089370184211 -11.017417514971051 -13.587298678617199
A -7.09817751089063 -13.02715787770958 -13.113722460019435
A -7.4328365770267162 -13.893306442872145 -13.852319688943645
A -7.5139569423210055 -13.215854009063733 -11.402297866444938
A -7.1339630877458351 -11.128138248072421 13.965638387531964
A -7.854247808712234 -13.467225760135015 14.52878264222463
A -8.1749176444734815 -11.268076749236673 14.607922161384378
A -7.0938975239985442 -13.625686627054661 -14.932712423058133
A -5.1800376956779157 -12.635147693559089 14.021979217907926
A -6.9435385389493058 -12.843966825263953 14.58272646938793
A -2.5583750143947528 -11.823325670657942 -14.288788581612708
A -6.1896861579249656 -13.723609491188148 14.602139066214802
A -2.4061560315561419 -11.965953414156633 13.847849931582182
A -4.3107242256365765 -12.585190893215492 -12.80949320224048
A 0.76171805168302031 -13.496684728684269 14.096911678652646
A -3.8509831529855347 -13.793142691302688 -11.414296220005793
A -1.098881866515798 -10.704138055170285 -15.010299476277787
A 0.31645011055152644 -10.714002066232654 -13.228763110623603
A 0.14894362761676813 -13.535515552864823 -14.350385687015313
A 1.8029459312878182 -8.3413940091206698 -14.329386178278721
A -3.621984044263975 -14.071658087886206 13.491707015813535
A 2.1226107915025976 -11.913971365187884 12.528096025873285
A -0.67024511892019745 -10.477881692363328 -13.072438829550965
A 1.3495283674135363 -13.613296144424513 -14.317705549309158
A 2.0869887154518825 13.101134429622242 14.213323631155717
A 2.8014250243532701 -13.585543917574425 -13.789293198786305
A 1.7868711535522088 -14.083497341632276 -13.249836659678421
A 3.3886479727008876 -12.563318551613056 -13.50151163919157
A 4.3166494039117786 -13.963460314976347 -14.215924599540134
A 2.4701085913920782 -12.475555011393446 -14.069678286412143
A 2.4815827577515797 -10.409149882263382 15.062302621841177
A 3.5433539073656628 -13.335853011737816 -14.466214847678584
A 8.0202690894613191 -9.4613727896479354 12.945074650747319
A 4.8062153856702814 -11.366248432057741 -12.380415361015244
A 1.984488037039585 -10.771919314549377 -14.08919354926101
A 7.0939926508163964 -13.345370671766918 14.892160570598422
A 7.9066156850758311 -13.936079078822919 -14.461684725488528
A 7.2852148034325426 -11.193902994133925 -14.36246876929223
A 5.447761950041123 -12.565234397935809 -12.077693421790302
A 9.8863653863414882 -11.264409367128353 -14.471107595824648
A 7.3063028545005491 -12.278174820532435 14.803805314120918
A 10.034008454683478 -9.4278468355756306 -13.739188678033186
A 4.7945274657655146 -11.967383052710113 -13.930708326881218
A 10.570741594849743 -12.759602190651501 11.539858492277222
A 8.1843078277133738 -12.785082720087338 13.569193407342638
A -13.989117183382191 -14.205092993838447 14.962128192679515
A 11.527763722636557 -13.005641898738217 13.999611257238953
A 9.2586095632198688 -12.164618584430933 -14.056718824566479
A 14.156933160077568 -13.677798660545681 -13.575955753426076
A 15.056064406276771 -13.508282628552205 14.597858284218164
A -14.745668560050223 -10.509372811286815 -12.323418485076028
A 11.784103412684933 -10.898010276351327 -11.807526276582527
A 14.036360913391999 -14.124948211857221 -14.563391560083446
A -13.592920568858887 -10.686138800653504 -12.286016448845512
A 14.06813129530968 -12.229861775561421 -11.577798077492531
A -14.393383538354422 -13.72344533155157 -12.314000032797457
A -14.20918212604519 -12.564675523019503 13.521235649372969
A -14.971263156721827 -11.399826017328962 13.77953929084061
A -14.235260922842029 -11.48844299367374 -12.311922448083743
A -13.374310901072928 -12.908985771377615 -13.631802955978269
A -13.218164335608838 -11.691592987036881 -12.07914296940675
A -12.070182618684845 -10.359713119040762 -14.485622481942048
A -14.038299434801123 -9.2324942518637449 -13.278124571369284
A -8.9075736492567525 -9.1657429510035282 -13.299942398464054
A -13.91576166308514 -11.442245151969475 14.085622985752991
A -7.9940413606309244 -8.6906162811279319 -13.853149329782207
A -11.149533266649144 -10.833666441958322 -14.710995746890971
A -9.3136199595818603 -9.5314637157459892 -12.416126642861244
A -10.052115636312264 -13.006792470160859 -13.682746561974612
A -7.2514705999303306 -10.184855690800172 -14.109185237921844
A -8.7717377981964582 -11.77893517507675 -12.457940226860979
A -8.1432280826430894 -9.9438753478655677 -13.616372114308385
A -6.6239295127227402 -13.034809479799462 -10.918129754098851
A -6.1798957614465522 -8.8990710440838665 14.877698309435177
A -5.8107231986464196 -10.541899161100803 -12.183455964784509
A -6.7084278250771874 -12.147358764307908 13.904858286367364
A -5.0752849151117978 -11.004606576880692 -11.682844575155498
A -3.3907529325671182 -10.620182561251623 -11.090045285987385
A -2.3211025617586607 -10.865704157983956 -14.570722089707008
A -2.6574773042031801 -13.049233410320255 15.058882129325712
A -6.0932856956549424 -10.900020542207425 -14.886822814215952
A -4.7813881437836177 -12.908061275710757 -14.928201608540761
A -2.5635113908944738 -11.680798643417667 -12.400335523044234
A -4.2249843311825561 -12.691094733459733 -11.709912874324219
A -2.0346410093350449 -11.450614360077306 14.692106184950614
A -1.5421329024916657 -11.478977477016729 -14.436125675355056
A -4.3364825673182565 -11.052323865652697 -13.128149000953302
A -1.8662686445641283 -12.727063588290404 14.413201087432864
A -0.11097677307402413 -11.103981694052617 14.929124121063227
A -0.7403814793562471 -11.049667428030817 14.081960483305487
A -2.6727203901283332 -11.834377187295511 12.844199354856375
A 0.40308056715864932 -11.922531603440261 -14.810665594837921
A 1.5536675241182345 -12.576799635796778 13.82105151523491
A 0.1449297540580276 -9.1284001845774938 14.26882635062778
A 0.70043906908453535 -11.178858116666101 14.219022502466959
A 1.7206649915036152 -13.467249007435967 14.472799798416036
A 3.193816310880746 -11.489498219290939 12.977865726974375
A 2.7858065531745861 -9.6193552886740825 14.489966250208331
A 1.5653584843989765 -9.8774274455190625 -15.036576511556554
A 2.1653045921320362 -11.672864453767451 -13.460498047082815
A -0.51001706422967086 -12.550671941673494 -13.88808747063864
A 4.432256549345392 -10.740221561870978 -14.802266094999405
A 2.4402364987875309 -11.614152649170116 15.035225858424951
A 1.1822771804773318 -11.420452664545623 -13.777386200912582
A 3.7318049748262112 -11.106483486568944 -12.609068628474651
A 7.9758656477475798 -11.62922560696078 14.21367612700419
A 2.2300798934025199 -10.120188379857096 -13.277566163368773
A 6.058423928475313 -9.702357966320827 -12.292419233590856
A 6.2385905442657759 -10.707175546976504 -12.074532420749724
A 5.3046612119610899 -9.7747388938594479 14.851724027802723
A 6.2389508506926754 -9.1762709646102163 -13.422360204616249
A 9.3098455450178061 -11.042220025868623 -12.756166852741277
A 7.1057861247714049 -11.365804218027989 -13.043110040091337
A 10.045516445049122 -10.951976503848632 14.632590056471576
A 8.2440986791994391 -10.4275867731759 -14.332003737718171
A 9.9404098499870042 -11.048909329633954 13.601556007876479
A 8.1135281313447987 -11.03179610815245 -12.734110332978331
A 13.317096146004976 -10.08795607602527 -13.418246670820563
A 11.825941055665993 -11.065239902707191 -14.723550586476225
A 11.896945000460594 -11.797762721308841 13.330527873684268
A 13.890513325883827 -11.865935065324267 13.782154150553367
A 14.464621796961284 -8.78293939492732 -12.658244412537902
A 13.820414297646485 -12.675333061895129 -13.526358465074665
A 13.670981759641533 -9.1345636247349251 -13.414431252670163
A -14.313928844764613 -13.070200497582078 -13.090102410544329
A -13.917696243746747 -8.4360926783502457 -12.509656041505892
A 14.085962280824521 -11.076043568279193 -11.183595356126888
A 14.573803364754523 -11.06872465069064 -12.126510161807898
A -13.346493311088192 -9.9784291245745713 -13.082204326044334
A -12.031918803416115 -8.2509091713141594 -14.900882124690588
A 14.658554050884337 -8.3253830120862631 -13.902411596308566
A -14.178888921617144 -7.7634901371829015 -11.692419007252582
A -10.466803540866316 -9.6883811927202856 -15.018983911094717
A -9.9225907689618769 -9.4775256629313045 -14.159532161045902
A -13.054663817965256 -8.88715121720751 -13.083408700878003
A -12.837910051656223 -8.1466473186075117 -14.303795476710668
A -11.810336957322766 -9.8170823762099229 14.02028821402746
A -8.349510628328856 -9.0024549135550824 -11.75610134857302
A -12.729062005099118 -6.779173801315987 -14.510898101605568
A -9.6587044994239424 -9.98644385690781 -13.259069124731583
A -9.0217619657436714 -8.0996374124027639 -14.348787284016099
A -6.2861187686940436 -7.398085805652844 -14.855939817888093
A -7.9942677429068416 -10.915520703564587 -12.615577700597077
A -6.1519755681674999 -10.190411717218378 -14.176573342287266
A -3.1750124734050247 -9.3422925054704358 -15.061484361146881
A -4.7297266150824955 -7.0147867092311262 -13.773934086714092
A -6.7235289023701892 -10.018768540360748 14.198022063804112
A -6.4865196955754243 -11.312347154433928 -12.869947725056077
A -5.5115020402668069 -11.117134815160609 -13.807868884263064
A -3.6369598968384294 -9.8318482055724807 -11.704052420761764
A -3.1563056431780527 -8.9605154824903472 -11.506134534514675
A -6.4012512750141362 -9.9523140087256419 -11.538819910873844
A -1.3072992376712564 -9.5036962546917039 -13.482239952378141
A -3.0902870164068288 -10.843004586580921 -12.666993566826138
A -2.2700605985289624 -10.062088329426604 -13.385418429028098
A -0.65124575880203228 -9.6884886306384335 14.510184475696194
A -2.2542861230259046 -9.8706821967188443 14.954306462892527
A -1.2842376364997707 -13.276770542998348 -11.136497379919009
A 1.4002071163130543 -7.2967568897619435 -14.247938641263607
A 0.013098270500847038 -11.958702185644457 14.422325076511596
A -2.6467231283562023 -8.3799778922774077 -15.009295611218002
A -2.8068754771632038 -10.755729070356406 14.616254126201969
A -1.2251056153225264 -9.6984036817813184 -14.684277704468069
A -1.0685918787157354 -8.8121341121484651 13.788445526658823
A 0.20359002495900005 -10.747355894003073 12.132268243982079
A 0.4082925012350761 -6.8512920586033523 12.822772742398932
A -0.46964732979100826 -6.8763893647773715 -14.331901691398233
A -2.0575132954096311 -8.8454180948734109 -13.045382769665588
A 0.66664685161704018 -5.299724929082501 13.477403602892419
A 5.0062359509075218 -8.2852433151426954 -11.429049596795181
A 3.8476852994725141 -8.8148856058754106 -12.565439730061517
A 0.87434360445018444 -8.4962615779262247 14.555416691457911
A 3.5088273031682777 -7.8212154992162723 14.443215031087743
A 2.1186594150287745 -9.0423416821944471 -12.876694515106379
A 4.1745753932608585 -9.4619327057147284 14.020981477115033
A 2.9076251094700738 -9.391427615996701 -13.413620960218152
A 3.5587575774894198 -6.9230133516412788 13.984425625785331
A 7.6041973672907472 -9.8729613868646471 13.928886858671014
A 6.2902486582746011 -9.4027955711005369 14.017317471437952
A 6.276159529102415 -11.046551297336091 -13.637726720101375
A 7.9210986203206302 -8.9843578849408647 -13.852074208196571
A 10.492259481024032 -10.55325496647575 -13.456250097956119
A 5.9623729166060651 -10.171680430834153 -13.204652958830602
A 7.0667714977089995 -9.3015501517161017 14.688301351633807
A 11.355470572914442 -8.4611165549880045 13.820802390982461
A 8.3075302326334324 -7.6855774778061949 14.967745258510323
A 9.7878279441702567 -8.595923796836205 -14.256444668849314
A 11.119789971090329 -8.6426964611449133 14.92621274724036
A 12.741716211343229 -10.782528366305574 -12.851183609069375
A 11.068387688674946 -6.8386769772688538 14.117838804541694
A 13.103345051640945 -10.215432578314989 -14.540404911687078
A 9.4834551718983722 -10.092433569581052 -13.171655297623628
A 10.662300642930779 -6.0592665785511164 12.20442658051839
A 14.688131436886371 -12.089044037121187 14.397493506607395
A 10.775458909855709 -7.8764870886474787 -12.482182036089078
A 13.834694478196884 -10.923043105287841 -14.212092335757463
A -14.767053202431223 -9.74596478939824 14.959432128620303
A -13.621278689386163 -4.3438803453665944 -13.815388831206027
A 14.311435842470775 -9.9790185226657915 -13.69764084983953
A -13.488290878809472 -7.2135725630643623 -13.975745215161119
A -13.710028174228505 -5.8123444165982612 -13.487802891930912
A -13.11634010929752 -8.6696964164691916 14.973199119906534
A -14.229205367304765 -4.9847523487927496 -14.307289267025141
A -13.787089994647138 -6.1837642151531673 -14.593985996644482
A -12.178189998258151 -10.657891498143062 13.553514089806427
A -12.647005103784492 -7.663466210600955 14.565915227811587
A -11.719440640211454 -6.3818502760886915 14.500722890819981
A -13.501776503275689 -9.3421201352971348 -12.194469756083397
A -11.866467629434124 -7.8301487742733853 -13.986466894377815
A -10.197253974852597 -7.0935445421122107 -12.373892689585222
A -10.911206798840603 -8.2869667468612267 14.6548609344437
A -10.52553695624273 -9.3759985126241734 -13.256238505017956
A -8.17923766209727 -10.725009121463708 -14.555382347533341
A -9.6660146885799616 -8.4635758644696466 -12.663906821914475
A -5.8826994835034583 -8.4481219236105112 -14.17800278413803
A -6.7394546788226428 -9.6229761746104234 -14.791182444749655
A -7.7138630850733048 -10.199794514136048 13.735814594458475
A -7.2863873378126911 -7.6613871799769138 -14.975546272681884
A -6.699548804348284 -8.136580718292608 -11.880556281000914
A -4.5753569216526246 -7.7150165523307725 -11.639718589604342
A -5.3777882269752419 -6.7237261996601978 14.189569163238659
A -4.9750039958505816 -7.9053880207016061 -14.504959236783066
A -6.8298234485083968 -8.121474643587927 -10.517480415730944
A -5.2207708161877662 -7.834291047191301 -13.444900623017384
A -2.1233299114393804 -9.1295965047288714 -14.543352477569712
A -4.0140652934300212 -7.8418006276692571 -13.713539060991151
A -2.6959450259657651 -8.3671945159785857 -12.353489554920426
A -2.778506880614918 -8.5766466109186599 -10.545009671016755
A -2.2544923389866618 -8.1260788956377663 -14.039271820730782
A -1.7922959013110951 -4.613114293825368 -14.77775309883571
A -0.51634851018353933 -8.4333876224193052 -12.027480874469667
A -0.048499778631843522 -8.7378624875640529 -13.896566854374672
A -1.4818852874216717 -6.4561964856446279 -14.608899967221481
A 3.2344865453950997 -6.0619674283656844 -14.046042513803858
A -1.3184478646986588 -6.9924784641525539 -10.907166222023164
A -1.0056227723477642 -8.6257721466325759 -13.000780553669921
A -1.2591709835240403 -8.4947826373677096 -14.048401474516615
A -0.78600211787517293 -6.0145949907298002 -13.833181448041042
A 2.4106211450247366 -6.2916353413832438 -14.68283025884373
A 1.4363612575600617 -6.2994928692531813 -14.424460460502772
A 3.2399806177560806 -5.8240735977258478 13.742840488173968
A 1.0696116675578504 -7.471484499121841 13.974848902958513
A 3.043474452543975 -8.4348451245143856 -13.145693101121754
A -0.13168866988909092 -4.8683059885591238 13.968729109633401
A 3.9640043192309395 -9.2007625249082583 12.701957779682338
A 4.1354115733623429 -5.8907724007000866 -14.623012309569532
A 2.2907240169015575 -6.2288448311678044 13.200039305397375
A 2.8600681877155045 -8.1961873308532294 -15.048888402291169
A 2.8872014478217407 -8.7513744131206934 13.398017061335533
A 5.60862286700476 -7.0090989312149317 -14.770174503497216
A 5.3776774285970736 -10.245175255334233 -14.401232895105238
A 7.0224690649196218 -6.5278759142281286 -14.069787851993153
A 8.9784833500434544 -6.7741085400468393 -14.822495764227488
A 8.824957328080167 -7.8205189938043036 -13.276309572109884
A 7.2318802352284735 -7.2956772685022031 -13.407344928531549
A 7.9356973454627777 -9.3872130850708633 -12.81572025550307
A 10.377675163600969 -8.1085055611993528 14.005414816007175
A 10.682758180929415 -9.1744070665562365 14.100497142079639
A 9.5075305759377304 -6.9001517138519306 -13.70793479962647
A 10.768900942606791 -8.2793654159529915 -14.300783234347332
A 10.553792080467696 -9.3856003725915418 -14.83859681300302
A 12.514022526133946 -5.9093344710053337 -12.627691790336319
A 9.2866338468806102 -7.866610951262679 -15.035799195178393
A 9.0979349141649486 -9.0776870377038748 -13.567303278509776
A 14.744890222502718 -8.1326955166746977 14.348211471730046
A 10.90678411603246 -4.8898421505551122 -13.543278704369055
A 12.710937670136147 -3.4675965637922088 -12.586432410396862
A 14.001247851344667 -8.0228562834325743 -13.129010973173687
A 13.404868836780105 -8.0862079565498419 -14.277525321350048
A -14.938785741990918 -5.6476285595500793 -13.64171041053643
A -14.967946909508607 -4.1800787022348631 -13.25961578384385
A -13.634962805938073 -8.3033947789109543 -13.695910502670534
A -14.538881289236672 -3.8489575225011445 -14.675982852011497
A -14.629202225881746 -4.0821273670080434 13.551148668461806
A -14.311189725814208 -4.9743434244432301 -13.236781596528715
A -14.877064278233311 -6.6183718813309387 15.080125406539675
A -11.603422859389728 -4.5204877037217042 13.908286831577399
A -12.952655203399178 -6.4783008092854342 14.476390605488302
A -11.850666403929949 -5.1260794962212257 -13.807821096121437
A -14.566954207621995 -6.0646613015108564 13.475715988640495
A -11.720711829277045 -6.7942761960815501 -13.924139420813619
A -13.963399930513507 -6.402285631759681 14.396373273296994
A -11.660805934751144 -3.9729677032954247 -11.973487257484729
A -9.9500373887805118 -6.770876613095397 -13.690242054407747
A -10.245374559619128 -7.6891438350588173 -13.426119896334242
A -10.161428171260614 -5.4312663790430227 -13.77698654645569
A -8.4929093378855605 -4.0313365032689132 -11.044155319309056
A -5.3441549851917047 -3.779159780335307 -14.117128972500552
A -8.3821271063692411 -5.8044613104330001 13.93631015541235
A -8.0034453703619395 -7.7433781722297068 -14.23022951068449
A -7.3767054227046422 -4.3894586466907164 12.894623625114669
A -5.8408512742125387 -9.8682315898866868 -10.45511884722605
A -6.6497298225041366 -5.2357869188367472 13.721143904121423
A -3.9030741238805913 -8.5388352718629541 -12.976146080784311
A -7.9974370470478293 -5.6076921962004054 -14.81845250762411
A -5.7918296943325647 -6.0489503444617441 14.841578911331556
A -3.8127103298498608 -5.6237735551159114 -11.95042302974676
A -3.8219118572182973 -3.6076966084517657 -12.202456082694056
A -4.9511249620636804 -8.3453202253763106 -12.443059599421968
A -4.4492280637981407 -5.2091709394213552 -10.991382240530857
A -5.177677170422168 -5.7111456174771238 -13.577515821584587
A 0.55504847996487205 -2.7900480369348912 14.465609747470129
A -1.3430512485156623 -0.77727998579763757 -14.089252951950137
A -3.3870774770844085 -6.4714439827313663 -12.291998700206106
A -0.35367732909728861 -7.6926442601267313 -13.646067017598634
A -3.5634144952248996 -3.3080749178822195 -14.52803272201194
A -1.0690462601963866 -5.7775211071396582 -11.953788822817312
A 0.29288982718011369 -6.6876105204801206 -11.427440383327992
A 1.1589584414480205 -5.7086037902776008 -11.384747086428884
A 0.48462100497567784 -5.9664773311326833 -14.369018513101805
A 4.1285628765868125 -6.0136691124075599 -13.424255366539583
A 4.2818365286608007 -7.1482168229150327 -13.53068560748302
A 3.5458283497070533 -4.9108986808135331 12.998330834356373
A 3.2915557265589741 -7.0732076831879089 -13.824654131770002
A 2.7762691283228169 -6.285596520235063 -12.701738870925194
A 4.9690790544573229 -4.9490257417203543 -14.597328067912512
A 1.7296862170674805 -5.630538395443736 12.59187310368187
A 0.37241632524140911 -6.5653806935951868 14.912003256114502
A 2.8129865122465718 -8.1099509012822466 -12.195383067162672
A 5.2312604114650973 -6.089849675073701 -14.940674257842204
A 6.2745610919699466 -6.4809516485606924 -13.298238510926694
A 3.2660884354667958 -6.0074347230918832 15.010586848401058
A 6.7980781878496508 -2.4063446854520723 -14.181384236862183
A 6.1730796575807174 -6.0026251493743867 -14.456491179073199
A 7.8929725058490607 -5.1928654752337771 14.593204298937183
A 8.6856244963320499 -5.4605806677813638 12.472256754401808
A 8.4717812210382597 -5.9342938876728066 -14.374420730655117
A 9.8230878858282527 -6.7755540044211404 -10.714587661615186
A 7.9883949150911082 -6.4111264779588284 -13.517347510871383
A 7.2708166064621382 -8.1425633190893372 14.668598768703228
A 7.5482859579628965 -2.79958662470926 14.386958896701817
A 11.431759831699198 -7.0683077475968901 -12.487943314397812
A 10.597557309436411 -4.5283922234949054 -14.922019449619924
A 11.233227212234832 -4.8955701633043169 -12.255130823213827
A 13.583292684229763 -5.7221069124841835 14.947364869829018
A 13.867940264511427 -4.8923762768039589 14.450001856469191
A 10.666028850576319 -3.9771961857448552 -13.969845130600309
A 14.062480986349806 -7.1091934091898352 14.564479422759099
A 8.9819558037872902 -6.6568062155204739 -12.784475215070565
A 13.914454028311045 -10.428515914919846 15.03461069021559
A 13.534340104919353 -7.120684528287188 -13.84170521555672
A 14.632485546113955 -7.5003795818681489 -14.576332213701331
A 14.851279612919084 -3.413853675616735 -14.18525852123266
A 14.44181966717596 -1.4770645734585472 -13.916000072592105
A -14.651799195907309 -4.4573132232762225 12.509223898963302
A -11.59455367656825 -2.7401584542338755 -13.233628148143751
A -12.23627097126052 -3.1756287247906787 -10.389304087426835
A -13.663400906706608 -2.6545043264236274 -12.013159310244292
A -10.914199052082667 -3.5009725644109251 -14.505069223950057
A -12.142363492157555 -4.684785580345439 -14.922153028815249
A -11.239815703660746 -4.7615060798036444 -12.921081616584866
A -12.598629409742315 -5.8269318473719318 -12.234068415276525
A -12.711786250725938 -1.7424858154467144 -14.43783558829961
A -9.4932087517688952 -2.6798908729044961 14.613940444185037
A -10.990788920110015 -6.7916904689988851 -12.92620759324846
A -9.8427198109831533 -3.7402770104417451 -14.506626641481285
A -10.919366965577774 -4.5487751836654633 -14.384748272824165
A -10.270237483213887 -4.1239532935041234 -13.432557117865068
A -8.4112091430132558 -5.7154957747054302 -11.386554676369768
A -10.255755019999208 -4.3199900492651535 13.959730239743429
A -6.2815434989015992 -3.9556028121102771 -13.337597565696033
A -6.1402271269562352 -3.1009199133629481 14.345264730802015
A -7.224805835789188 -1.9513600578078223 14.967232003775022
A -8.4851894311554616 -4.7850160017643191 -11.754983026914818
A -6.3430509020044008 -5.1852098573372851 -14.903960804123619
A -8.1089096909961196 -5.4733743263956454 -13.606551499986848
A -6.5927451253504969 -3.2373803866325068 -12.456247541210836
A -6.4590090255116008 -5.2397325922466127 -12.26312639553576
A -4.4164357581185127 -3.3928705444518239 15.04265638452547
A -5.4832015112896926 -3.2652060738030184 -13.225205102866237
A -4.7328297501387082 -2.6350157091724546 -14.377282170849092
A -3.9788221426844981 -9.817139443303585 -14.067893697085974
A -2.3587303347416855 0.70176750319232206 14.114801450311358
A -3.2436949635625072 -1.7217803482013749 14.481160727145852
A -3.6245180393574787 -2.5422710748756217 -13.682406046018396
A -3.0064591381899812 -5.8441940612202545 -13.618973927704646
A -0.73593276355501358 -3.9032982291212397 -14.965761036258982
A -2.8231372090506572 -3.3296574090937492 -11.886030805632648
A 1.512649953475292 0.44442402919506824 -14.511838016584914
A -2.4276390902787064 -4.2254352400528283 -12.402226212731108
A 1.200012904610285 -5.7559985923734995 14.85608507348207
A 1.5663135797492458 -4.2846870653678346 -14.69874443842137
A 1.6676765749345521 -3.0041424620677786 -11.663685718546084
A 2.5767298753698329 -3.4868206738422622 -12.148363204475498
A 0.10173062949174852 -5.1036012896289202 -14.004098265723616
A 3.8582844736295905 -5.0727553692583527 14.860923342602645
A 2.4626077365770147 -0.1221527250623801 -12.908730856800915
A 4.2582106259605634 -4.2277736460976341 -14.440056392907046
A 2.4410383636346125 -7.9441721479071514 14.160712773695504
A 4.6437576133704228 -2.9314814268491451 14.994730188637099
A 5.3991654599718446 -3.7872915194327517 -12.865410872207404
A 4.3055316953406955 -5.3736593369756029 -12.331948620982116
A 3.2927395856730635 -4.3181093812453515 -13.757338605269446
A 6.37198813675748 -3.935125842341594 14.612463274831629
A 4.5449274554590868 -3.3265364913743909 -12.459205239300696
A 7.8513638720820289 -4.862237365773078 -14.592959627585014
A 7.0141485969283055 -2.1180090931215689 13.589744771133727
A 10.477911021129177 -5.548996156466198 -12.689367280720091
A 6.4847748457996852 -3.7284484668015399 -13.563298417580405
A 7.7740163838482417 -4.1337714848324332 -13.790728096199089