ITEM: TIMESTEP
1
ITEM: NUMBER OF ATOMS
23328
ITEM: BOX BOUNDS pp pp pp
-15.08190489966774 15.08190489966774
-15.08190489966774 15.08190489966774
-15.08190489966774 15.08190489966774
ITEM: ATOMS type x y z
A 13.435464569663566 -13.291603369309854 15.057194587058657
A -13.620478858093772 -14.2443641809407 -12.288994756368865
A 12.994623521891253 -13.716095048523002 -14.253276666068828
A -13.002244271426372 12.227335647632859 13.22128183563624
A -14.649372221319956 15.036835312491567 -13.702636022542235
A -11.872248310814223 -13.440529389647777 14.673558444025939
A -14.260308008072924 14.150126260686338 -14.348828021426108
A -12.546734684289413 -14.762605254128092 -13.881509075045578
A -11.942402996961055 -12.858109286515148 -13.149546268819531
A -12.665940995511157 -11.753184886847805 -13.69640494291462
A -12.108904476757511 -11.283782765753537 14.42549072406549
A -10.695946277111476 -12.460477386040994 -12.777390960318737
A -9.6239049459527841 14.866501063798214 -14.185101925706922
A -9.6883990659763164 -14.256335023448139 -12.290144659866826
A -9.1032123502813107 -11.382693873555445 -11.972714725678996
A -11.194456211918448 -12.671901482622875 -11.877112367460972
A -8.8693281334316669 13.975576542406642 -14.93963798014793
A -8.4733062993180095 -12.36752384286009 -14.838224141603641
A -8.3527460081971618 -12.55508725055884 -13.755371312122103
A -10.599573944520975 -12.715680010084371 -13.832384967530684
A -7.7085572903785557 -14.536376161412804 -14.318903243453232
A -9.3620496032535758 -14.223281311983834 -13.890184049444969
A -11.064196479014923 -13.475122472480646 -13.199769951459718
A -3.8511488004579069 -14.601416938480412 -13.03932875536754
A -4.8055006206605659 14.705661308199558 -13.779683529717008
A -4.1039217930801133 -12.888629749270812 -13.624525407707072
A -2.2023206995767501 -14.627747717562173 -13.288729313837917
A -5.4745725005498036 13.911964374510415 -13.817166577210312
A -1.7419186108553197 14.185638207966241 14.253673830776625
A -0.94418125866110991 -13.745361036519412 -15.034708685316748
A -1.9729450438616254 -13.993370304442248 -15.047852195847794
A -2.0016691453264794 14.423938875236013 -13.747897044531724
A -0.15570242462160261 -14.065389136657499 -13.981612523724396
A -0.090506146296418413 -14.95007337402312 -13.028132815178257
A -0.50554949404856164 -14.738871551414009 -15.029393115821035
A -0.34494905512860341 -12.42524046381782 -13.094718029009634
A 0.35988032609460913 -14.988169138885208 14.552076387581209
A 1.8650056123756924 -12.88993705264644 14.165044344039313
A 0.26344457305184898 -13.255768143196017 -14.712664417737384
A 2.4911342718675762 14.638096404678608 -14.893036693689472
A 4.01091878898493 14.468513066311749 -12.994998672002014
A 5.1241314534100244 -14.399743462586631 -14.671764236872722
A 4.6116159050626999 14.242497842328818 -12.064434751012929
A 2.5990439154894589 13.639154560686613 -14.376321955045979
A 2.4297087589080668 12.167108256807868 14.006313997942957
A 7.2723234448923275 -14.007156476708614 14.66989812587274
A 3.2184208612389038 -13.402222741333766 -12.113947436650914
A 3.7022899603154711 13.661368353430014 -12.491579647807361
A 6.4211304564250602 -14.555336650971736 14.410059286877944
A 7.4551685517929274 -15.042192238427619 14.988665881600479
A 6.3215491273952837 -13.905302624218242 -14.891390838186091
A 6.7597563100176679 14.199399629559855 -13.811931250683827
A 7.9083937133182225 -15.013189288936246 -14.233495645867356
A 8.1260607286839086 13.892265569425714 -13.383962600544251
A 5.8749113028043247 -14.23651534384525 -13.886996762965454
A 8.5020744025017958 -15.050019374125815 -12.902069753875796
A 9.496505438962334 -13.959484741750115 12.471402434571495
A 9.1154775043144909 -14.340494639169972 -14.960043966756594
A 9.5735781852791675 -12.906404459380783 -13.597110513616826
A 8.943088236335349 14.890849426144337 -14.61413673325414
A 12.031740908752882 14.51384334273329 12.231663619263852
A 13.124316103461373 -12.554017855482476 -14.429595240694621
A 9.3847980060054095 -11.776285507891721 -13.953474089134414
A 9.9489099572272135 -13.184341864200565 -12.664465511400426
A 11.666401673184621 -14.365615495402034 14.650681081564413
A 12.47866152191601 -13.578200185024972 14.433606647062987
A 11.92894114318937 14.816318033748143 -14.946730280545482
A 10.301894478535026 -14.246857919517121 -12.747807151307917
A -14.897143329027386 14.352862579662039 13.842268071950734
A -14.920349531168327 -14.500753418095753 -14.535570636183683
A 12.363403856995244 -11.832237757585071 -13.035117836871068
A 12.800055442238037 -9.8431179470117609 14.545723798300612
A -14.825287769329341 -12.242728044360691 -14.728512937432882
A -13.867959502758167 -10.780338610214422 14.755236088408251
A -14.652837345414458 -10.154672096398716 14.905965136126371
A 13.928891424121485 -13.126202026565139 -14.146269344847617
A -13.369701183950717 -9.8038250618728799 -14.399016747647126
A -13.559550157743685 -11.172674421621188 13.679013484283811
A -11.949310104090671 -11.061533912840128 -13.515405286852967
A -12.726855593446642 -12.068934972020324 -14.666119064173385
A -11.071314158070491 -13.635417124848983 13.935294913663537
A -9.0578212482127292 -11.704605161451108 14.81734130820975
A -11.171246069923557 -11.377132900965824 -11.95600259269899
A -10.772160009865937 -12.686184573973273 13.488667176342904
A -11.696167823870573 -12.025878985864248 -12.605154850698192
A -9.5936947263601819 -11.137191379559157 -13.716491874116475
A -10.858699791431279 -11.314158769503349 -13.34129266814236
A -7.0540152318128575 -10.171390329174086 -14.659672191218579
A -6.5204086591160992 -9.7117074535773789 -13.823840790503276
A -8.8801121848822397 -11.812208043341785 -13.202910304378019
A -7.1568202935977752 -13.790888474404193 -12.78234749212605
A -8.0068504142939325 -10.849747314870315 -13.028064904401013
A -6.7848909159588553 -12.084070565491018 14.599804093904861
A -7.6626844885473018 -12.919008102035644 -14.51444186425519
A -7.6172594356323353 -11.703640728579757 -14.753586441966906
A -5.4130024232229896 -14.190413728702239 -13.609083378614093
A -4.8698908150465892 -13.602715564804504 15.068132400666203
A -5.0627566052470279 -13.049686924180623 -13.983236027695403
A -3.3035911257888557 -11.293695502325168 -13.099936200423683
A -4.1377981106609756 -12.948600626013866 -14.666911001448087
A -1.5294819023419912 -12.418953174355666 14.948457705029707
A -3.5750643090457728 -12.927936468833403 -12.758464894868894
A 0.050231621176381615 -12.47007395618159 14.176555423972944
A -3.1052743068984285 -13.64097568419368 -11.348014842982499
A -1.2246279533198123 -12.35457822032714 -14.182290122246476
A 0.13030936586187317 -11.468014673005719 -13.531216654153617
A 1.2124468198387575 -12.497847304221784 -14.026034852726298
A 1.4667886618209371 -10.510200096423812 -14.602820473655347
A -2.6206475642385492 -13.448968351628984 14.328757582814182
A 2.6171260805765195 -14.21308283447723 13.7375169224341
A -0.9092290476653192 -11.487662519771501 -13.079589501112958
A 1.8081769247390518 -13.267104201103544 -14.730382835826578
A 2.7983655378384218 13.230922149398666 13.576655373469229
A 3.4383736863641352 -13.530135614101022 -14.689892120711933
A 2.6899925395675104 -13.955934170756784 -12.795582072126559
A 3.8911357941067695 -12.763480343442239 -12.551814160630098
A 4.2465887389337817 -12.880778018483728 -14.368981899561025
A 3.1219407119374796 -12.674465302580368 -14.038069488453052
A 2.5495709895659346 -10.132184796187822 -14.397088736458716
A 5.5777558817064783 -13.403463674368506 -12.639585891032871
A 6.9097147023621037 -10.472160809606343 12.51445799296545
A 5.0253986264937964 -12.637930305393006 -12.157645698171191
A 4.0123707500538695 -12.238004278781712 -13.534463972444478
A 6.9246764414251647 -14.101771422856826 -14.089240260417935
A 8.5872969666051606 -14.296853896430772 -13.563929766166547
A 7.079342463473238 -11.094587342324534 -13.940613795815427
A 5.9692581945036727 -12.701594867308348 -10.723366921942892
A 8.9742118818846084 -10.940220381452459 -14.608596678349093
A 7.3330011557832107 -13.077602667480672 -14.952833930808676
A 8.8057012516000785 -9.9243314108197129 -14.491577067524615
A 6.5025286660015498 -13.405647436144591 -12.097782735215556
A 10.501929371020926 -12.337755846757444 12.957928013640093
A 7.3272903382018315 -13.300012236089641 13.961824063060639
A 14.227938117177409 -13.998279165272534 14.629331971975244
A 9.526535242297907 -13.324532100826159 13.762006122680358
A 11.719423870967537 -12.857219729922733 -13.469174042652465
A 13.550337942750151 -12.134821421564812 -13.554627786386467
A 14.245318331551667 -12.726374484838878 14.592596073723788
A 13.923835529699469 -10.85479269897824 -13.375853024699301
A 11.65322431882983 -11.152825240602935 -12.400003593864303
A 14.702708372148875 -13.355743536478872 -14.809778094225877
A -14.001381688439839 -10.584975979874519 -14.435712797980585
A 14.205267980843166 -11.76784957733248 -11.637172256557632
A -14.504497267336882 -12.250499228481518 -13.092047880742159
A -14.222771117589829 -11.735549938472799 14.751072704235229
A -13.82624240580061 -10.215661599196993 13.838179499478393
A 14.924563499018848 -10.634725902306062 -13.61194592975378
A -13.904239987575181 -10.65770525667941 -13.306218610785983
A -13.094919726438402 -10.044845720338477 -13.358968028507132
A -13.044579080518709 -10.874731281926008 -14.136078501138217
A -14.722680396378271 -9.1838577224600382 -14.647239441761723
A -9.7133233377242725 -9.9261540859420361 -13.59544560876579
A -12.584357994941884 -10.920932512519073 13.555216693444638
A -9.4863672921832265 -7.4190556874272682 -12.021734923874725
A -10.012671709263072 -10.39056531377777 -14.527072983812166
A -9.553435906775146 -9.9284652466478924 -11.676574869053663
A -9.3119592329111676 -12.197251484180262 -14.216911035745392
A -8.0295458941892708 -10.726857505139806 -14.942710826798004
A -10.37719813623483 -11.776284131432883 -14.135364909171869
A -7.5562482388786103 -10.834252767541402 -13.989037998438302
A -6.8454537985052522 -11.292140792908542 -11.364948304245752
A -5.5552265441516173 -8.6893927597982987 -13.881215741760636
A -7.1479320710957337 -9.9590992529970421 -13.082428233320055
A -6.2787170518241915 -11.768127585181864 -14.606045390924038
A -4.6340546201692199 -10.389938511348861 -13.701311690254311
A -3.0776654472174303 -10.040218614428786 -12.302726212265355
A -3.0887607278564215 -10.344094252003989 -14.79429272627606
A -2.7244244762010346 -11.064445460321581 -13.979844646000286
A -4.5201229118098594 -12.046317081299561 -14.294252725723712
A -3.246739499625559 -13.064791470598518 -14.18614547325808
A -4.250818289218496 -11.191602217369613 -11.43999503348258
A -3.237686327902189 -12.428080976651296 -11.909663117175407
A -2.2268153651059732 -11.81643072642121 -14.452729470220676
A -1.6793803030872929 -13.198470579100036 -14.48308697187953
A -2.4783265481081429 -13.374711206186223 -13.218788889408707
A -0.5322530037207357 -12.624067113313343 -15.071132651432233
A -0.67829236514865776 -11.532635250453648 14.749741661753729
A -1.1144997669101537 -10.410474125577819 14.844248216767022
A -1.8098834470039091 -12.052799664812087 13.047822099670125
A 0.83370448572810396 -11.293068087642737 14.72217175277928
A 2.1806924460963755 -12.418542291239286 13.241908826795342
A -0.035415774188581918 -10.679691529391468 15.070277110005414
A 1.5331914986955566 -11.892620851776723 14.278580417148103
A 2.3678769268314408 -13.800978613982402 14.622899593162808
A 3.1824142025118483 -11.877615349524381 12.762007228766119
A 3.1537441927283116 -10.031558461897081 -13.557410290219337
A 2.0396296027948306 -11.03098865465298 14.918900950801522
A 1.3775446821719357 -11.483379597138542 -13.523585081386937
A 2.1615300249771403 -12.087759858316534 -13.76812270130822
A 4.5594182162503669 -11.304599686230661 -13.6461011753505
A 3.4484271340857369 -11.664649566498159 -14.137646986932111
A 2.93260283257524 -11.935365346761552 -13.148467120664536
A 4.8240480783709625 -10.74973414424246 -12.062009341672088
A 7.9994868467500018 -11.432362822000607 -14.295292757588358
A 3.2580681973465855 -11.306379514157937 -12.362378197078693
A 7.1214044389486792 -11.901036491839928 -12.422632190657978
A 8.6556900937731491 -10.900934233032242 -13.512279879165964
A 6.6750792047765817 -8.325036225024931 -13.690577117005148
A 6.7148070535955675 -9.8128991638529843 -12.964712639317279
A 8.5192515233773403 -11.025910934770586 -12.523974815230085
A 8.6244733560889504 -11.938559025977666 -13.037999674690155
A 9.9029026542363265 -10.372323827361413 13.985565934406171
A 7.5465293743497446 -10.902557301031043 -12.978326635441155
A 9.2054343521695525 -11.010478704257382 14.474409529642868
A 10.697821372131108 -11.579033948634081 -12.066742360805101
A 12.808028253745979 -9.8530197803419721 -13.884938604053424
A 10.582057835756231 -10.437163823848246 -14.011042325044464
A 10.220650093674179 -11.224254962102831 14.614734953956152
A 11.338398525424781 -11.253590349083737 -14.325426403213989
A 14.449270434017034 -8.9550839510533056 -13.338722105466768
A 13.337483423100897 -11.48910703672737 -12.638289236228866
A 14.211255775667889 -10.169747484821416 -14.147938413504246
A -14.628431922774014 -11.50312020639589 -13.860668538052415
A -14.9828060293188 -9.5830940472022714 -13.756717098589681
A 14.82920457166936 -10.931202437938035 -11.740346093548128
A 14.113484936166701 -9.4715351961889116 -12.516888592017521
A -13.668908907739182 -8.992855350150089 -13.770395585093375
A -12.209989997349648 -9.3328438536305889 14.744705915351698
A 14.221947696611453 -7.161270855733803 -14.345125632424416
A -14.646851675730375 -8.8725551985452853 -11.198067121474315
A -11.27466611724058 -11.999788130501164 14.037993692323315
A -11.39628344096325 -9.6917803146411057 -14.818748820878412
A -12.960222803109119 -9.0646938226907832 -13.020827353661645
A -12.749823084782474 -8.9777575274774257 -14.316406662219423
A -10.896370306976454 -11.020782136021825 -14.663150044937975
A -9.3349690429663568 -9.831013929166124 -12.668087985114278
A -11.05574104939318 -8.5715729576534869 -13.822268899683085
A -10.439282188398384 -10.116967363368872 -12.848829948099302
A -8.6054437451130639 -9.6389629520408775 -14.842748786897012
A -6.7537268440539862 -6.9158358200209253 -13.776697267032919
A -7.8089026418675473 -9.7623978449611393 -14.079014906097143
A -7.6174957764906441 -9.1598182609951255 -12.334634243593742
A -4.7889916902990164 -10.470975037761825 -14.712969630030853
A -5.4689106630915143 -7.7043167522210165 -13.685532478795183
A -6.9539736885185688 -9.0150979077026232 -14.543235839515784
A -6.5973107221055969 -11.671894597578991 -13.588285424597862
A -5.6944864732580802 -9.6032270188050166 -13.235218727399886
A -3.8091209195218401 -9.3063862371849009 -13.240349149065683
A -3.8118590869313147 -8.4649554665837403 -12.007482507471774
A -6.5767064527903774 -8.942585210905472 -12.517114861639183
A -2.3606890223615808 -10.114282742536284 -13.917706949649574
A -3.8177528683069442 -10.732792197114387 -12.361802787985248
A -3.3575505914445434 -10.21411458471087 -13.652115483067316
A -2.2135798022381219 -10.800063611913226 -15.060117583264061
A -3.8789278257690056 -9.660269050627516 14.631901698726507
A -0.83831080588685325 -11.584678414844133 -10.542832062769316
A 0.29762841907672444 -8.4695046336497963 15.002928847600925
A -1.6200801831228744 -11.696604376724773 14.003127307220119
A -3.2621365932922433 -9.2755681915611561 13.668139391723088
A -3.170165270077157 -11.442953812469247 -14.998039214559313
A -1.9509713811941463 -9.7280487582106474 -14.769090584099462
A -0.77419590193171706 -9.4323451335122144 14.873568692915706
A 0.20400402275859919 -10.555978379118283 11.986880251415595
A 0.26045752748855272 -7.8588123422933256 14.057755225484094
A 0.83098049838829813 -7.5358014492316308 -15.013806879153423
A -1.2468797984711821 -9.1451544478265188 -14.23331851980628
A 0.98875598912679585 -6.9592550266098634 13.747556338937478
A 4.6655661013445089 -8.4852893968129965 -12.098365010806839
A 2.7200408934745766 -9.5128737421957972 -12.77156463087471
A 2.6423675022785349 -9.0897225455922666 -13.721264774515751
A 3.5539649644191895 -8.3294677146832168 -14.989963619580932
A 2.0330612312613758 -9.4246533707429379 -11.986768091101466
A 2.6457236363410574 -10.029494180630303 14.609139558978045
A 3.5493437727981778 -10.981768336005519 -13.353914590543564
A 3.9224623174967554 -8.1403152818489684 14.010030451184232
A 7.6461049631869296 -8.7255119256899896 14.267758850553331
A 7.2165830957177111 -8.72689129703455 -14.968242458846193
A 7.9067468792635349 -10.244282964617563 -13.683731685316632
A 6.9574971081140111 -9.3361255036284234 -13.866405652808073
A 9.2209186763683064 -10.234250902724089 -12.791309839025971
A 6.5422194410066599 -11.323678617730932 -13.088132795953642
A 8.0484953107101589 -9.2482798687789192 -14.485054570928604
A 9.7041171512618636 -9.4790864793006033 -14.950065226221202
A 9.1136511026363731 -7.5991576536594305 -14.977547332786235
A 8.6071056926016265 -8.4036241579076094 -14.558479139371691
A 9.9783075032167208 -10.438813414849859 -14.826714532475959
A 13.714441836089067 -9.6268196730327169 -13.448706065809711
A 10.715894485881918 -8.2506630282796181 14.671613597474369
A 12.287123562911304 -10.99066298695972 -14.513101153048408
A 9.5867351729481669 -9.6050726036501022 -13.825412856219918
A 10.163594131552117 -7.4400295291812713 13.98526048030681
A 13.457773690713198 -10.582597631162525 14.177039805993468
A 13.059757425330329 -8.2888030804009674 -13.59068369662018
A 13.141966897323215 -10.422720068154746 -14.700640405771068
A 13.784152082607168 -8.8044078147124534 -14.084140956963957
A 15.010135323141382 -6.1631763162360924 -12.538539707834548
A 14.65773358803234 -8.3220325189657558 -14.188868198045236
A -14.446450900983349 -8.3736184975695682 -13.955731621036872
A -14.338351836096574 -5.1493999243566915 -14.165539702813032
A -13.63201452623059 -8.9444147994025052 -14.886436469595612
A -13.351986006206246 -5.4852586836929271 -14.431448728173647
A -14.243015765307318 -7.4848868435317408 -13.327641120922026
A -10.37619233194412 -9.4076612183324926 12.705803696133021
A -13.44913966894145 -7.6972212488516183 14.674212155958692
A -11.947929356329576 -7.6122966250326725 -14.219762929083304
A -13.117913802485026 -8.1786238267526556 -13.530295991723719
A -9.5684268752447945 -8.953300292397417 -14.583373029302411
A -10.395689517093219 -6.693117859584012 -12.696883619318294
A -10.460167996690837 -8.7249446762341929 -15.003104237539986
A -11.489400651771339 -8.1579064495545346 -12.761262679631306
A -7.8513634592821937 -9.4558850710586704 13.669720263751401
A -9.7555808238088257 -8.9041393998671392 -13.086487990272039
A -7.3847151561967399 -7.9919703465352958 -13.525000137643904
A -7.4410768816512673 -9.0064373865483915 -13.478182829573447
A -8.3268317555375617 -10.200060052750207 14.399046522763568
A -7.1920726569099944 -7.3207694314945693 14.6658696573657
A -8.3677940669209843 -7.6172668399321264 -13.464406152977332
A -5.6659612367875125 -6.7370146873760088 -13.251094608549071
A -5.3793269536064123 -6.0240473319386494 14.607876543946714
A -5.6177551658157405 -7.0256486491024441 14.255359019636558
A -6.2063410738050804 -6.8032778519306616 -12.396777504592693
A -4.6016786725919454 -6.7522357873494601 -13.252310430462769
A -2.7783106144819252 -9.455130055283929 14.705453149664939
A -3.3701462086387988 -6.2619337655534171 -13.638197262377345
A -3.1967041553290891 -7.8843943974004773 -14.391371787673281
A -2.6214313087223102 -8.392806645266198 -11.590236679352461
A -3.525255234153069 -8.5718651579447656 14.724189862058889
A -2.7203742487138123 -5.3487163719569866 15.074361566243336
A -0.69728367035215877 -6.6822261529861766 -12.834803097220739
A -0.10839010249003667 -8.9206843995135152 -11.842543695074317
A 0.030456396905739078 -7.1419753481827453 -14.426684526383514
A 2.2940103294110057 -5.5791278044063608 -13.228827371092018
A -1.2753768657062758 -6.3770160923231769 -11.959850466879431
A -1.1099532512258592 -8.5809411638092641 -13.217699977454346
A -0.26865475996791577 -8.8431408356451691 -14.315720324247588
A 1.0800073920859932 -6.4772016400555685 -14.086906057115065
A 1.5557885004505587 -7.6959251969625484 -13.512216534453053
A 1.6060402049684586 -6.3526406962003463 -13.219485916509822
A 1.8538589156222074 -5.7042535102343725 13.162651965911987
A 1.7435838234391232 -7.4481424706937309 14.259626706885513
A 1.8184789271307484 -7.4363844877005558 -14.815052339098827
A 1.3763236654139539 -7.1554659582908071 12.784267674622413
A 3.6508697326210173 -9.064789693024851 13.559684339040569
A 2.8598272275651588 -5.6164611525269565 -14.06742530698491
A 3.0760401751255837 -6.3869214655680979 14.217401710655061
A 2.4633857248758555 -8.2993865424156006 15.047103551297216
A 2.9079660021868352 -7.669263465364561 13.979013134550694
A 3.8774038990716821 -7.3928301775753553 -14.611245046920535
A 4.9051681279907839 -10.172169954233027 -14.211477723383647
A 5.804970616767295 -7.5474487562453261 -14.09893952858806
A 6.5474885329247936 -6.616808176989009 -14.765401186785237
A 7.7145865598445829 -8.2994792372669277 -14.07169382964304
A 7.3101559224595958 -7.2585177783539381 -14.15888584178523
A 8.6121913150775153 -9.5606505397521531 -13.453185000242463
A 8.4232782860348898 -7.484536814701924 -14.191490029216036
A 9.7153888340308381 -8.4642493082292987 14.762580428271322
A 7.9926523947480552 -6.682019218189386 -14.687424259316364
A 9.7776974695505174 -8.6619962130182042 -14.374956213725209
A 10.261535494203306 -7.4149131389412153 14.985315441051394
A 11.839144781821167 -5.2941687823042933 -12.469869598625859
A 8.4233117994918469 -6.7421174815858107 14.501428631526693
A 9.4151765353323764 -9.2517889337955719 -12.805719264138867
A 12.718281974851921 -8.794543876370545 14.372816283854423
A 10.488292251866952 -6.1940722082138526 -13.090803464384281
A 12.370998164404684 -4.2717026038771744 -12.571255598815716
A 13.996487836601409 -7.9241740217714929 -13.331692555525695
A 12.548866822782662 -8.1765146145769716 -14.687599038310374
A 14.080365052694527 -5.6917612909320114 -12.726436580973992
A 14.541503617472069 -6.2526299089881592 -13.503327039232563
A -13.861337755647266 -8.6068415844880466 -12.84826757381142
A 14.866402214516587 -5.2478461507645271 -13.284264275249079
A 14.595466013132361 -5.0448510355839895 14.090666363812062
A -14.602981294016507 -6.4704933382676666 -13.450948765817353
A -13.696363303229873 -6.4564774004061789 -14.298790516778629
A -11.388810829287719 -6.237826964326799 -14.359110341947693
A -12.246316525321156 -6.5906248379273507 -13.891111404372845
A -12.094887082912711 -5.7274601411639097 -13.258862612407997
A -13.163133017901 -6.0938562801071567 14.814707681452118
A -10.909074774287621 -7.4543194759855655 -14.596100416518272
A -12.831255897290829 -7.0050907734884813 -14.994255525251072
A -10.010611690655345 -4.7426191822898414 -12.224702362662637
A -9.9062637912993665 -5.9739781434675621 -13.595172051829962
A -9.4639834029204657 -7.2793703140950461 -14.147749214955173
A -8.7203208557807717 -5.5082202790725541 -14.231519424083764
A -9.0125223352308446 -5.0546018971559423 -11.826579646423744
A -6.3033551137281281 -2.2726773127893645 -13.836347699507812
A -9.1931153934697303 -5.2553883586044527 14.88667503879619
A -8.2948849702234853 -6.258862990284122 -14.956864145242282
A -8.4376580346904664 -5.5624247878653961 14.285559626549054
A -5.9268513352141934 -8.8210955247089089 -11.68378353830682
A -7.6408245499175624 -5.1895725210772872 -13.990203273200422
A -4.3091718681853139 -6.4125523428379081 -14.238692865842156
A -7.8265557939816519 -6.1631210339328639 -13.470647199992385
A -6.6519825806901967 -6.4392289008837746 14.619660439780843
A -4.019878085833601 -4.938327193017745 -13.443139699784854
A -3.6242186905430174 -5.3181138962253272 -12.012376268235146
A -4.5010051352243368 -7.5389071338893174 -14.028838286803911
A -3.0003808687361468 -5.3952312177178499 -11.195989443819217
A -4.7185170677741555 -5.7630103055754196 -13.550095793361436
A -0.2565778718110524 -2.9040296489200541 14.510765113516088
A -2.3644478385919152 -1.3639038382464581 -14.544513430004145
A -2.4339187007372636 -6.6077554822575095 -13.435088319525272
A -0.75100208763849452 -7.8032153663042614 -12.609058114855626
A -2.1889083101120912 -3.0250622779223959 -14.892921849645578
A -0.14889937967606764 -5.730580655294859 -12.989217655589108
A -0.14579046042839031 -5.4042845921799874 -11.538885173533776
A -0.028602591161348261 -4.2854601887562049 -11.691126491625971
A 0.086343457067291102 -6.1030838326419659 14.982059387881874
A 2.0646735328067831 -4.6302472412689886 -11.299453061252921
A 3.2611352532899698 -5.3622223658262786 -13.052799435502925
A 2.6827839045590549 -5.4873635305422903 14.440911820648216
A 2.1325317331123541 -6.5136526126983032 -14.163190936589713
A 2.4743542383201143 -7.1630274867335251 -13.417367408871939
A 4.0960626812143017 -5.550982048068497 -13.627171678448628
A 1.0693033870449518 -4.8522867583030367 11.965387251931197
A 1.0753603235358331 -6.5234212232434112 15.051655303607259
A 3.5055349875649418 -7.185125694204757 -11.059277210796305
A 4.7985558213906723 -6.4930748079886431 -13.910978079981199
A 6.173574578618461 -7.4840234243236878 -12.258999003987883
A 3.9305982316029442 -6.3367568370982443 -14.501989433039418
A 5.3257924272531874 -3.9037250490508519 14.936741045606416
A 5.8680061494151614 -6.4797853200829945 -13.85175957603645
A 8.0151132345232217 -4.800782317940878 14.261735839977888
A 9.1103410938597182 -5.5771120920186368 12.779908241307233
A 7.9410346789291602 -6.2108113594885088 -13.59487914880564
A 8.1112821979226588 -5.4842404584666546 -12.433097159527357
A 6.9012167859476232 -6.3939448084264656 -13.733079900726272
A 6.3019434480737475 -6.2716937608082555 14.35606911260154
A 8.2020118285803516 -2.2451179359847857 15.051688681323808
A 11.146364377592697 -7.6023774284193513 -13.314453953299765
A 10.379077869881868 -4.9757171557506039 -14.298463702614111
A 11.395062057874613 -6.5634743316621336 -13.411342829690801
A 10.790551365018043 -5.3706770598181066 14.971461010705015
A 12.813532810006842 -5.1523741481692875 -13.847016036816161
A 11.152977615889673 -5.4320681052644568 -13.260494622703085
A 13.716177193018652 -6.5808894298789236 14.748872481498474
A 9.1859833080879696 -5.6269760673607347 -13.152021974506306
A 13.92569011448508 -9.5446164575582966 -14.877492708551033
A 13.018458724286885 -7.2851138619779539 -14.633696707149991
A -14.074673657094902 -6.9245631809427275 15.045759627055769
A 13.601740221343222 -5.5670737601088272 14.366078752078998
A -14.753208652982796 -3.6512791050367759 -14.377975902988799
A -14.065009191303007 -4.758011706864977 14.840793460615005
A -10.998420243063954 -2.5481408676023785 -13.560169683740877
A -14.163043056215978 -3.7138491620958574 -10.393497275367976
A -14.649708808599886 -1.9450307295248046 -12.149085547348832
A -13.507144084722462 -3.7754765062809397 -13.20373651316975
A -12.526375472749818 -4.6247242986367079 -13.549270749058842
A -11.487006647505012 -4.6710673186486469 -13.322372022889581
A -12.855864285498052 -5.4406894790748748 -12.498236970585143
A -10.836585567816149 -3.1096334672822432 -14.561486178565287
A -10.391234474546684 -2.1924401415494628 14.52318750036212
A -11.347485969740074 -5.5912107391145351 -12.513584790011491
A -10.245500148123675 -4.5059592908076631 -14.005316530752165
A -10.32220544244815 -6.7516529282890456 -14.119007842163143
A -10.641288789189046 -5.2072334552913615 -13.372162575062287
A -9.3131083507713015 -5.7495558098075126 -12.72166565072504
A -9.4273322792402254 -3.8333948919468241 14.113199955707106
A -7.2783016014815116 -4.5625485272695663 -14.70321759678459
A -7.5953974772984525 -3.7595236735378537 14.943812874742148
A -8.2482049958114612 -2.7131417650780016 -14.992525641721041
A -7.0704038036772969 -4.1356883148270382 -11.647826043936757
A -6.5245641277740614 -4.9486442812344897 -14.131986811260289
A -7.0914325150602009 -3.9820539339401892 -12.800274063500153
A -6.5816484410364708 -3.2343852487616198 -13.8291233647832
A -5.6588934627495355 -5.2706800454540206 -13.631839794387163
A -5.0241775423786486 -4.1194650636659436 14.261965789935243
A -6.4427750304481641 -4.0049268463228254 -14.493926311146367
A -5.5580535195179701 -3.2925369872744095 -14.379257667187488
A -4.2071434241324859 -8.0747421284716623 -14.825632450075355
A -4.2965113982629326 -1.7281245011508797 -14.729315199414227
A -3.9125325860416007 -2.7128954727241084 -14.419824124375284
A -3.052750868206878 -3.3565965974606038 -14.213758744915452
A -1.8560067032626006 -5.3713208892809803 -13.948203308664194
A -0.87425588866959836 -4.0902675014099268 -14.643366798529957
A -2.451261459796505 -2.9335724465457456 -13.186224935250044
A -0.47017220939088683 -0.38604106553476397 -12.892847047248205
A -1.5330826584031918 -3.9912787722556273 -12.358179718099422
A 0.84157539935889425 -5.6348010367327648 -13.19785369665426
A 1.360288475610522 -2.9348566622250281 -14.255041190805242
A 1.6809968499271739 -1.8983908998659751 -12.563963159630156
A 2.4153636135189007 -2.5766112587990335 -12.503679884294566
A 0.77561510565613778 -5.602551301157817 -14.546131513060198
A 3.7578736694865569 -3.9433693659159483 -14.532596626392838
A 3.9928468807368307 -0.86371900624518272 -13.448522122264071
A 3.4357690328469133 -3.8292778155350562 -13.102745438215395
A 1.9643318024183862 -6.5007875501138139 14.54696528594876
A 4.3543827165182289 -3.6290834842348896 14.689917200032697
A 3.9322573236136895 -3.4739077535441401 -12.072929682305457
A 3.5531309540766731 -4.6067349798108781 -13.747590271697787
A 3.7341170957462202 -3.096702444560401 -13.792083148729095
A 6.7448408426453685 -4.7714399241104166 -14.424240496969322
A 4.7654977959212275 -3.3893945556265033 -14.243035528857995
A 7.3276669862358803 -5.3135002034554741 -13.620812123545438
A 7.1029073463068091 -3.3698510410304565 14.435846401341147
A 8.3355720794544013 -5.1140807324356361 -13.559223247864839
A 5.5888678022914977 -4.2618493351888116 -14.186134726938938
A 6.3337782061769099 -4.5414785223727687 -13.219488114735405