ITEM: TIMESTEP
1
ITEM: NUMBER OF ATOMS
23328
ITEM: BOX BOUNDS pp pp pp
-15.08190489966774 15.08190489966774
-15.08190489966774 15.08190489966774
-15.08190489966774 15.08190489966774
ITEM: ATOMS type x y z
A -14.576227832171689 -13.284220069916474 -14.927817617692796
A -13.664288920029605 -12.40589257127297 15.043007876353931
A 14.242161260156097 -13.059671321077696 -12.604873172354232
A -13.069057546248231 -13.314958004790476 -14.941084630827374
A -12.417715439738354 -13.917081223040194 14.673504555483786
A -12.384057717687488 -12.892848128802745 -14.255377253716297
A -12.46916205006406 -13.955893708447435 -14.390867510372518
A -11.856162458770669 -14.21002832985063 -13.355832345037003
A -11.537204382958015 -13.750854803918548 -14.807709113323178
A -10.386552228174585 -14.453037194971195 -13.086157405575255
A -11.754190479768434 -13.220010584135865 -13.196662095195181
A -11.174715259576697 14.806480091918234 -13.734475588126315
A -10.802117140091067 -14.484730946089963 -14.734730600486577
A -10.347763717968038 -13.581023612782722 -14.895671224964474
A -9.8412451991106842 -14.392746303429753 -14.064849868053146
A -8.5626366871914659 -14.353644071953592 -14.867257500490297
A -7.4847019207913714 -14.693628129055378 -13.690718940042387
A -7.1045524077133759 -14.02832351305733 14.700945172876999
A -9.4325593050576888 -13.159846847918855 -14.413268158830389
A -8.1131307196849036 -13.284232181106852 -14.255283884089607
A -5.8137745051098948 -14.543116121406147 13.340799425423992
A -5.1106450935525087 -13.888749797460253 14.176961197582052
A -6.6772938488836564 -12.134943805407186 -13.879742490650562
A -5.9808612171934907 -12.874911276376944 -14.516714014707329
A -5.6793300663015183 -14.645125518599544 -14.623693580043883
A -4.3329093585286991 -14.318451009607173 14.79394869117883
A -5.2782925841535127 -13.519364566647354 -14.981502074285533
A -2.8686087319882607 14.968304783800489 -14.558641475894211
A -2.8949998214984318 14.018333688953533 14.71340586250756
A -2.8615566425248096 -13.718169505150609 -13.929829190023922
A -4.0522502404296326 -13.745627863859751 -14.265747400142754
A -2.3941333280871531 -14.072152547218844 -14.832563868194914
A -1.5751949611368359 -14.49784520644066 -14.394507658756112
A -0.44439539606598571 -13.211033799966918 -14.40442813428259
A -1.8273067711569921 -13.882461838843488 -13.633249534338423
A -0.37924151758598917 -14.639294835584373 -13.278076167402503
A 0.053491118983735229 -13.827590919367534 15.044410610863189
A 1.7812805966986109 -14.007823281243073 -13.957369530144762
A 0.61802002925372501 -13.84992266273022 -13.258790074883583
A 0.38647010718089325 -14.800824591097964 -13.948596124104494
A 1.1705814395291887 -14.736481807112344 -14.938863300993516
A 3.1185202032114416 -13.72592752152112 -13.875524088661594
A 2.2582155228538556 -13.668130777010582 -13.12770023404093
A 2.1836470173700118 14.237330581599741 -14.054254452576767
A 4.1719982093936698 -13.80203897644142 -14.542854417192368
A 5.2237526637461436 -13.498687636745933 -14.663989679721281
A 4.0536412221771032 -13.837181857068526 -13.264801355197283
A 4.4389541628219877 -14.726145498631382 -13.005930007745855
A 4.6626216725314586 14.777811703154061 -14.511175865578366
A 5.9970901624965967 -14.155681389367818 -14.583084957504203
A 4.9294958351978071 -14.197670405650104 -13.998274865729897
A 5.7947718233929004 -14.865537606034648 -13.789982911209687
A 5.9218232015418488 14.817477361455722 -14.851861110988054
A 7.1171350533105038 -13.877208254819614 -14.966220361046391
A 6.108982971231729 -13.785934507231977 -13.440465580519566
A 8.4249396370455027 -14.819257349173524 -14.435319934538789
A 8.2599795463635939 -14.279345129701351 14.642154273101355
A 10.095718079247371 -13.902497054439824 14.418956766226211
A 9.1990938852238369 -13.570259222764575 -14.196276390780911
A 9.2563707639544628 -14.369804512895733 -14.849446361192108
A 11.553027103582668 14.671152138639506 -14.348733434321097
A 11.717527036327059 -14.352871951581092 14.555861162269407
A 10.895771218095014 -14.50030358314557 -14.536401999702729
A 11.539734061471551 -13.727083036093163 -13.764629629301107
A 12.704495498860911 -14.260057160987339 14.294638621237308
A 13.231824471269565 -13.993070861480922 -14.720516728452479
A 12.498979065245264 -13.336536404469134 -13.967475302491783
A 13.312915424368974 -13.393122978509455 -13.242081286635644
A 12.519636182105327 -14.799977022304613 -13.854376677290345
A 14.785866766032363 -14.161329972977498 -14.502961176801577
A 14.35911656047333 -13.200036424278785 -14.729557002750317
A 13.845358143548749 -14.351079590395107 -13.606032919994661
A -14.096966232688647 -11.560189725016208 -14.259960032206411
A -12.584975984474882 -12.079089434291967 -14.82609843088307
A -13.597428548345878 -11.450345384710635 -13.204893801234684
A -13.607019782274463 -12.55797898046373 -14.01392932557148
A -12.161306403510132 -12.104860911834143 13.851181235113394
A -12.445581188710461 -12.307544304793034 -13.150941183387426
A -12.867439230258448 -11.705798696926298 -13.868735577107433
A -12.644110071461871 -12.665914524977847 -12.215119842538201
A -12.091328787933788 -12.903638587939938 14.769873196033851
A -10.909812070342367 -11.752456865503698 -13.195950477100586
A -10.277861293773602 -11.667873330648618 -12.288253482872065
A -11.556847319927652 -12.335139793364947 -13.69190300463892
A -8.892321381950584 -12.308767857431851 14.357150500227009
A -8.6528664984304609 -12.547395268306417 -14.756811326623469
A -9.6569097304747036 -11.701494166799174 -13.83497769974451
A -11.025132871839826 -13.722149617334621 -13.92438365201736
A -7.834040248045457 -12.595394490251319 14.825699798304541
A -6.9469960765452594 -12.64798837842214 -14.698607556410769
A -8.3426605202899502 -11.550908711250408 -14.726909282488011
A -7.3558540433573558 -11.433783938150178 -14.130839977594308
A -6.3774502868805474 -11.367066694081693 -14.455256670861774
A -5.6710556088349886 -11.798388127208502 14.085181224228368
A -6.5653229154267452 -11.326212203016844 -13.202079055732252
A -5.1929597961667655 -13.079410646668887 -13.194520386844236
A -5.6368047963044079 -12.002537072053062 -14.073091651420073
A -4.1279080485120065 -11.15064982112858 -13.893665591633642
A -4.6768065500346445 -12.088015249545675 -13.364780201628713
A -4.4822625185204981 -11.950980664156278 -14.456347942399153
A -2.9476466397070795 -12.785751289449673 -14.591538629945681
A -2.4821184909892846 -12.002844253346423 -14.097358219206948
A -2.6618071835197279 -11.868546871390398 -13.062389764451893
A -1.6042934564141091 -13.191353876216757 -14.459423760285889
A -1.2824513492800764 -12.080329337913716 13.618040038471381
A -0.98228680885712194 -12.440032808958122 14.751881637716814
A -0.16009540178719869 -10.875151027669599 -13.677015169788048
A -0.90902016795488594 -12.346781681433903 -13.99814682861818
A 0.77668318772815037 -13.552523048767446 -14.251773928684175
A 1.9238072587915811 -12.783305143413999 -14.471928167087007
A 2.092704157323058 -12.613939783464119 -13.442822699589787
A 1.2932146268030318 -12.944443488598639 -12.904941986588694
A 2.0738505415333921 -14.253192548717726 -14.89788847208035
A 3.0260833104178544 -12.662213133424885 -14.106935793947994
A 2.710642707495357 -11.577474762901499 -13.004990004584045
A 2.9667897293823535 -12.918893650100323 -12.971603288184433
A 2.5146836034001789 -13.22672030907342 14.985237381062216
A 4.4589522719012127 -10.668286174291628 -14.64477357032249
A 3.6782206213227626 -11.747070274871064 -13.803812103158913
A 4.648729974183575 -11.836334557412581 -14.270971552723722
A 5.984065950686869 -13.015170293746381 -14.154464932082593
A 4.6277579527647923 -12.710818855639729 -14.897235835938133
A 4.6747098434909757 -11.554253391059484 -13.31085904705059
A 6.3037751388337684 -12.588386527264127 -13.127601311527904
A 6.9619114661347234 -12.179735239877422 -13.814274728753114
A 7.9026081040366698 -12.137083627893094 -14.488439373635622
A 7.8993448928415591 -12.027531148647194 -13.105552707902259
A 7.8388204698535437 -14.134384404863141 -13.98427798443525
A 8.3114410092807081 -13.436139258824062 -14.876594828046128
A 10.226575480629741 -13.274219639639082 -14.868117829907572
A 9.4335540739870751 -12.875744982587129 -13.46049325956888
A 10.016478800313736 -14.341801409963091 -13.941180150754052
A 11.094552557343198 -13.618116813937606 14.924795751243037
A 12.035430129282739 -12.06818868964206 -14.784340605139194
A 10.798213049189926 -12.053179778973901 -13.48019979009417
A 11.041753355776775 -12.99046614107966 -14.254987769681964
A 11.902288207895438 -13.933359298417663 -14.691175072340279
A 12.566642715818917 -13.299792071750694 15.0081365717687
A 11.674328333547731 -12.573749026061972 -13.543974520316008
A 12.37194218959247 -13.026023558248195 -12.964494840963486
A 13.525355585851536 -12.739186580335707 -15.046296768510345
A -14.82118662502679 -12.173796349644286 -15.0348988076375
A -15.049214289874801 -12.507054748898923 -14.06890025263742
A 14.563831766499343 -13.556154440449562 -13.596682005585297
A -13.311081338810345 -11.482380695301581 14.733062763476948
A -13.393236294474056 -8.7350880199020047 -13.443993953816637
A -14.772165748353155 -9.4886238649064349 -13.542504636116121
A -12.675976811866649 -9.3901294559807873 -13.084772872823287
A -13.027452565205545 -10.661510478110232 -13.901467064703674
A -12.620308239903688 -9.8575517455246047 -14.602230321824607
A -13.734586062426915 -10.413537922486354 -12.402679360984539
A -11.894283834075758 -11.406411486644483 -13.282060617412615
A -11.415018111994446 -11.214394923070488 -14.227934253200782
A -10.319491565522959 -9.9336603950939573 -15.043316452950977
A -9.8746100601018902 -8.2217264344898648 -12.531181179270023
A -12.06434952434228 -10.416884358959154 -13.689893939015105
A -10.410342338889878 -10.95734481316161 -13.952273267265694
A -9.9319508957726743 -9.3562749413700548 14.23891916806482
A -9.7137345827886072 -9.6148178497073076 -14.256305828279634
A -9.9474290863850481 -10.384836913101251 -13.226472719154447
A -8.6550072870451853 -10.66651872530144 -14.305868375207872
A -6.7759476734575053 -9.6376347792760253 -14.375236858142326
A -7.9124588924083454 -9.7775210938843458 -14.524950346512478
A -7.8648726696371067 -10.584406319334112 -13.594781817407279
A -7.3440766449539918 -10.726858970847855 -14.844921145809039
A -5.8104088740779005 -10.340455189272721 -13.882891658550623
A -6.8440816558436151 -10.412506671890917 -13.640742709837761
A -5.374146836557129 -11.196558046492097 -13.537013507703197
A -4.6349877453009549 -10.291642176375474 -13.666140872346903
A -2.9769346150787577 -11.103194679969349 -14.046725894109199
A -4.377178958336434 -8.8952861995000472 -14.608550696446889
A -3.6312794678468197 -11.93973575926832 -13.356271423360635
A -3.6978765153236473 -10.694313569290671 -14.698972572072906
A -1.7185242242911851 -11.280057916164568 -14.350363001516294
A -2.2833720122110059 -10.932642392377604 -12.815833511606654
A -1.6767940748378225 -11.733925382629877 -13.408505605084365
A 0.07054832814051519 -12.023353972180683 -14.312822112669675
A 0.57405752093383677 -9.5058335429940204 -13.382321285749081
A -0.93042139303886351 -10.404316019186005 -14.329977137630928
A -0.12618694055811286 -10.145638463304852 -12.967271336988293
A -0.043175794244547108 -11.624140912460222 14.894573503045441
A 1.8996129533776926 -10.793500109831008 -15.032011020491288
A 0.88278346650445982 -11.211553244259342 -14.761261510995796
A 0.97195815816263742 -12.557571563522918 -14.690702388419515
A 2.5076472467088773 -11.28879778435557 14.321752336376029
A 3.3809013095709401 -11.146739570492718 -14.855866005127481
A 1.4960268799432377 -10.417833605182784 -13.996249900632973
A 2.0219778211981518 -11.620928561960044 -13.923571259763751
A 4.1027124247126201 -10.532452472066351 -13.452925079807585
A 4.9063561431029123 -11.066380458026334 14.572536900337589
A 3.6044363532051662 -10.118925266638094 -14.724450049787334
A 4.5004634762266118 -10.594680669841768 -12.508027555755085
A 6.0058279662690586 -11.256790316557957 14.759954814763333
A 5.3960759629864938 -11.116897872177699 -14.375700176041159
A 5.3899647723468895 -10.740296067774235 -13.245544915223979
A 5.4859960890279886 -12.121363555000123 -13.63056582951014
A 5.260372718906142 -11.896499977540749 15.065023858009642
A 7.4737135091574425 -10.154720007137973 -14.621633997215733
A 7.4973066491644875 -11.228131228615897 -14.617268926701543
A 8.6778487638186235 -11.713883558418921 -13.708080785942004
A 9.1208098844531023 -12.624802393196871 -14.515460268379794
A 9.4556768067557524 -11.666354238689507 -14.358716956498926
A 8.9492146912932515 -10.029345927616761 -13.698481244561698
A 9.7802674130949026 -11.887369000906668 -13.288247930151288
A 10.343648909850234 -12.142353404486752 -14.621830565397094
A 11.20923472683147 -11.663162441052179 -14.386822947505395
A 10.120903100565084 -11.118515878795179 -14.884366115417166
A 12.231182805513718 -10.059987687115795 -14.037969732739443
A 13.369387739846433 -11.40417194226904 -13.990512855091234
A 13.022880166000157 -10.155362672940962 13.781260804350449
A 13.493459821521901 -10.390107925758388 -13.963921997262233
A 12.720716878321273 -12.359312652830541 -14.073428698435752
A 14.021580530707807 -11.843422166516609 -14.854493590424189
A 14.545263994670709 -10.735162769083542 -14.570794357656871
A 12.690194461382719 -10.879193884108275 -14.790492812248546
A -14.135109143088897 -10.351188349541275 -13.735600500252353
A -14.062723125465576 -9.1386715090120543 -14.230128494441514
A -14.449301571197076 -8.2701558057374776 -13.826227950214385
A 15.046388637040286 -7.4925140389300955 -13.726641893152232
A -14.261427263378096 -8.6854073255466719 -12.92015926896911
A -13.151167557713615 -8.6441039742912178 -14.653133064542805
A -12.736046791583441 -7.3506587957804701 -13.707062443792534
A -12.36335484626893 -8.2864678067096147 -13.736821506281055
A -11.900787361921353 -9.1774869095719023 -13.751392509413611
A -11.322800588555738 -9.4898413807321287 15.071702965936392
A -10.63272913622958 -9.1223682824393553 -14.417166812113678
A -10.87026921167023 -8.9005031316182688 -13.248548092065377
A -10.864168668524183 -10.039761541197443 -13.891568750547743
A -9.7099800414372908 -8.7469288873069484 -14.762649043688672
A -7.9201788205131818 -8.170559005047286 -14.877452931439588
A -10.04035226317114 -8.4113297100442566 -13.62730240614296
A -8.479169818058697 -8.9451882042796544 -14.364709165640487
A -7.9146229885179764 -8.976369453903029 14.656112669093886
A -7.2066759824202 -8.119141685489156 -14.026560373193506
A -7.5457508364067118 -7.5543996377326126 -13.195691662046849
A -5.9537220632051264 -9.2618858592483395 -13.409101714007374
A -5.3874076306150345 -9.2402011967085294 -14.240108622400752
A -6.4972678501179155 -7.3248834343726283 14.988415546326841
A -4.6413055509163916 -8.083187873726418 -14.037541754392551
A -5.2938492363166505 -8.4389617446309142 -14.959775558311087
A -3.6777905161221054 -9.7659104128710528 -14.219712154726052
A -4.3163011506000526 -7.7697253052077153 -15.074344302143347
A -3.6620324386499163 -7.2038413774537808 -13.239407085229374
A -2.8624578372326597 -9.2848217436430129 -13.506674176380852
A -0.94254001043005098 -9.7835212174315824 14.940658937322933
A -2.2038991302399493 -9.6281851163260654 -14.487593098210164
A -3.0993534540920251 -8.7928650379517634 -14.465569717794301
A -2.6608667790857985 -10.479970304877684 -14.813453812936933
A -0.88563825564163468 -8.4248155028063341 14.950417152695893
A 0.69709924661738121 -8.5430015884002728 -14.170379091227412
A -0.25358786949107121 -9.4482596179553031 -14.081984215794236
A 1.1832916317619275 -8.7357853834172712 -12.578497587486018
A 0.71932115848541744 -9.9380295931716613 -14.422034169677323
A 2.2372137903962392 -7.7168690509725595 14.763794912046889
A 1.8387255835804865 -8.5024716967738723 -13.445530519537281
A 1.4819767538718538 -9.3661102342360589 -13.857832577932793
A 2.5633235218859451 -9.7711445438504043 -14.671988586086787
A 3.3255498695713386 -7.7377687034088396 -14.342078893368949
A 2.2855021501331865 -6.9516240655696047 -14.738485233987642
A 3.2015876832712959 -9.8865337981612971 -13.797771103235787
A 3.664313965438835 -8.9910607684556929 -14.261524117574462
A 5.6751408200353524 -9.3422282314963176 14.703889597558099
A 3.4543507954457784 -7.2763776586039324 -12.947493421558613
A 4.0183435032440897 -9.3227715562598128 -13.326237671693038
A 5.7586452622856061 -8.8169777847387074 -13.382774461105653
A 7.3179481622754023 -8.2230780308764775 -13.336629716930547
A 6.547974468574024 -8.5759508413164145 -11.485618812880031
A 6.4506914209342705 -8.3881462773559203 -12.595395753189726
A 5.554966128429224 -10.110098446568726 -14.088865844071792
A 8.6387872110671218 -8.4550464247255146 -14.390377234453943
A 6.6558988698730301 -9.1563918011941041 -13.779332451400775
A 6.5285125660619796 -10.972355504466293 -14.585197158507036
A 9.4581302456143792 -9.6889811488056132 -14.750153271733087
A 10.264177916100193 -10.115844695022405 -14.271168385780587
A 8.4747533788305489 -9.8457847278754365 -14.61099717470824
A 9.2329706166382266 -10.67908343956109 -14.559060065759576
A 10.454101339115205 -9.3979859537888206 14.42468512393714
A 11.151750943988898 -9.8680662454898282 -14.859941527200876
A 10.976548247032817 -8.889281773464397 -13.143122682738593
A 10.830697362015913 -9.9801716001154226 -13.232103160508698
A 11.391003913954163 -10.622926015318743 -14.183074025011988
A 12.971683900699027 -9.3888816221449218 14.609683145181604
A 12.178395048383592 -8.9423062254188874 -14.763422341190582
A 13.04390697657945 -9.3485950999683372 -14.270312143182693
A 14.097654764408668 -9.5631851416947615 -14.173887259790364
A 13.81240476609959 -8.7494299272126881 -14.705563719913192
A 12.77224261475825 -8.3004187331686925 -14.057699509532322
A 14.799637072704869 -8.6573285268794091 -13.694622459577658
A -14.575991070203727 -7.7607052868393582 -14.72478259215422
A -12.977871266683113 -6.8920845460755222 -14.574622916892334
A 15.006019860446267 -6.7676906958986693 -12.812592439628267
A -14.089220116599966 -7.2606418715823189 -13.074707563827774
A -12.428998015551624 -7.8803310492408487 -14.71029562895448
A -12.101774205525208 -6.4605266767198453 -14.272761444475901
A -13.084722021513453 -6.7436164089908699 -12.883761927463411
A -11.853604430503257 -8.6267709770044405 -12.804761238809265
A -11.603881927900533 -7.1946336880270758 -13.708388603261985
A -11.299847243530532 -6.3106417642295156 14.0779178441833
A -10.310509582082512 -6.471698873700559 -12.658591254676171
A -10.912206926809283 -7.7668284718836516 -13.260027276769611
A -10.443680068311039 -7.9262864134687643 -14.419478047637933
A -8.6632374394512013 -6.8167692625947325 -14.86457852089962
A -9.4282021435436842 -6.4807035224236778 -13.233354823872777
A -9.3596933635716049 -7.4774568695303216 -13.981142065166875
A -8.1992055610955852 -7.4490755937517408 -14.090288625863321
A -6.8271019335767695 -6.3427907666820094 -14.602024467944659
A -8.46768785861717 -6.7736174930392758 -13.349383812220914
A -6.5643367475819083 -7.1938122199991028 -14.062522027926462
A -5.6043095474331643 -7.3649896349914208 14.489600504033124
A -5.752634818450856 -6.2914437517169777 -14.289718089765406
A -5.674731112786132 -7.045241423429891 -13.395645455564491
A -4.7070768949380515 -7.0238765591580821 -13.74276189026803
A -5.290397968374223 -7.3435474552271991 -14.671347346994262
A -3.0945888134406543 -6.7560491728638139 -14.199473767612881
A -2.5918795075567402 -5.576630514081967 -14.470844542814957
A -2.9291322398348547 -7.8379290464110758 -13.796339657804278
A -3.1626053264948699 -7.8546118761985504 -14.924811854190811
A -1.3703393398571284 -7.4305923435131094 14.801294219689582
A -2.1521930893794763 -7.2552634537874683 -14.466088403264605
A -1.2719357868136267 -7.1839854741627711 -13.835219558877398
A -1.3139985561728653 -9.0704374770870029 -14.512071838412055
A -0.68755574031941824 -7.5760042125682387 -14.557175725778947
A 0.25206354624384919 -6.3701084659131215 15.008833144021608
A -0.69552001277159237 -7.0287979539395637 -12.973996348333642
A 1.2312451773786197 -7.7510281848458913 -14.565961123103802
A 0.30239073382890497 -7.3146306152077676 -14.752386281800998
A 1.1720293649467912 -5.23026056015288 -14.742409705364363
A 0.78714525623868192 -6.9767048308419719 -13.911539501737893
A 1.2423473210563569 -7.0486246358758686 14.860822571827157
A 3.8077942099628661 -6.8483237747917878 -14.614636032041981
A 2.3640735656544849 -5.3535218230167283 -14.900071721955799
A 2.5179076076685791 -6.8948964525411069 -12.878725256630682
A 3.9907627937659407 -8.1114513815254643 -13.420945395321677
A 5.499209613275756 -6.1052759092692908 -14.141631855092896
A 4.0988309064682156 -5.7545435768447666 -14.639081930096655
A 5.2058046326677578 -7.9861243083117452 -13.869164967808915
A 6.2939022606257335 -7.9432181584800201 -13.535643886922536
A 6.7972141428932176 -6.3028256727124665 -14.660165821880918
A 5.6756840205259236 -7.2828672354943826 -14.468044910084952
A 6.7507825493781484 -7.2246442029326152 -12.77859928286057
A 7.6464598922842955 -8.1017559371657537 -14.499399626662305
A 9.2828095833646866 -7.698420971484591 -14.856347471787627
A 8.4060747789358086 -7.3349971565118404 -14.429603025608362
A 7.902364059890993 -8.8772623540414504 -13.832607122484413
A 9.6105454511250077 -8.6840440323129524 -14.560517772025504
A 10.653938860803409 -6.6440457970272071 -14.884977189234755
A 8.4628938426220959 -7.9438639273859168 -13.448638643275968
A 9.2107705732299703 -8.8501220017689715 -13.589278649464417
A 9.4036799809600851 -7.7812650077792709 -13.840121603211644
A 11.287151064259589 -7.4846390032010168 14.772225297042219
A 11.329246436537666 -7.0532001955759842 -13.861046951112183
A 10.863892670001958 -7.9434671571292341 -13.656727594662545
A 10.633765198967909 -8.6913695408722713 -14.359791288682706
A 13.715171569679406 -6.7570354264968051 14.956729734418143
A 11.998725752136954 -6.833695485141237 -14.802814525799453
A 12.565388094746432 -7.6191131706933515 -15.069232843799808
A 13.736022987712841 -7.9480481413792043 14.770898914281508
A -15.019227560061967 -6.061864905388564 -13.725222499544463
A 13.587904095451059 -7.8022034272193919 -14.394958456007886
A 14.351633161166378 -7.5743835872557925 -13.010095659952032
A -13.624426946652475 -6.6996342985249502 -13.780660373667827
A -13.543283699887667 -5.9034130848490571 -14.443269831683592
A -14.169980830602412 -6.1851021163324615 -13.044294324384079
A -12.861257162083561 -6.0276488435237381 -13.597111982684323
A -11.98919504570844 -6.6671420240272736 14.790702461028879
A -12.513018364760187 -5.5999772386567761 -14.585633351958847
A -13.460188105545051 -5.0923806057686791 -13.355846809182029
A -11.853950783655135 -6.5925410160278375 -12.864648761345354
A -11.470061578964199 -5.8687368810823424 -13.696260365268518
A -11.440689536449721 -5.9452687199424243 -14.819584887699218
A -12.456922858847259 -5.0829459637352379 -13.419689181356032
A -10.485750720438975 -6.5748691875419336 -13.732971048767464
A -8.5224212241892676 -5.8545917608520597 -12.7158868312062
A -7.7915203537024231 -6.5059290493106126 -14.204663357811215
A -8.9938983800480283 -4.3301825908167846 -13.814855474123085
A -8.4698423633175022 -5.7705224328377156 -14.46794665931758
A -8.1252218419272939 -7.0565981330095857 14.339814095858584
A -7.7095931099247492 -4.4070394091275338 -14.641878372804269
A -7.4752612903738456 -4.5382991908091714 -13.668372002433726
A -6.8200193700454435 -6.2737089910891539 -13.603514319927815
A -5.5649201457480304 -5.4417714120078182 14.873294295876086
A -4.9233534063188431 -4.7083636687451405 -14.843082577444578
A -7.2982031639159937 -5.3407172093575133 -14.589127867718378
A -6.0606091042435368 -5.297235895034242 -14.251245552882287
A -4.9148623988683076 -5.7405547380128876 -13.62034555315334
A -3.7660453171748736 -4.2791536933688139 -13.062254485216489
A -3.9635726667151627 -5.3366226244322155 -13.356332303241063
A -4.0064314590286045 -6.3346185631609586 -14.210425525509628
A -2.5620955907972536 -5.3586047367847218 14.70089646933198
A -2.4103503758613809 -4.2363915158756811 -14.426156600652325
A -1.4803471350407906 -5.9947238156080278 -14.940323658167442
A -1.668255597992865 -5.3459990550441683 -14.070412340910073
A -2.7565919392348395 -6.7637382839780154 14.986780572815345
A 0.19611750913213843 -5.4669235333474822 14.513514875734526
A -0.71191997283216168 -6.6692038627095238 -14.978134583124341
A -0.34425484875918083 -6.8061731324781993 -13.924064981638265
A 1.7465622371365574 -5.3558687415682646 14.38948380655833
A 0.031341409309512021 -4.2307544039611544 -13.81039321540541
A 0.19452977694055498 -4.9614046262486582 -14.63600884503869
A 1.4779805906039538 -4.3639465352107241 13.861486087614399
A 2.2958246733278731 -6.873588415626279 14.145115200666741
A 3.8255169887121934 -5.5242990421969917 14.315199956300194
A 2.5128130955859338 -4.5306530710954247 -14.252221429391442
A 3.1404881019463087 -5.7463904325874591 -14.012505048827737
A 3.3458879761902343 -5.1231496996569961 -15.004360659864663
A 4.9841947983567785 -4.7999533952642794 -14.354674017802557
A 5.0553896616285234 -5.6089099176002462 -15.070600592307846
A 6.1586226258842833 -5.6111240135746945 -13.512787738469394
A 6.0228493614268794 -5.3289304937359212 -14.520028925686743
A 6.4320191503556545 -5.507653549925597 14.629441610753373
A 7.0536496526498507 -5.1020859005026216 -13.766254267201644
A 6.9909575808040438 -7.2714125988582756 -14.087009441675383
A 7.8223258044615491 -6.4151709944870312 -14.881922636736833
A 8.9033573509198174 -5.412769141422066 -14.625453213797778
A 8.0269233077343944 -4.2585889805774162 -14.12564540328202
A 8.5286371872747715 -6.1834299414797362 -13.920341306844485
A 8.8980784652388074 -4.1666545156217767 -14.705006758387951
A 10.269859669638963 -5.5618222216806075 -14.652948033956269
A 8.1277540395494121 -5.1993114343258213 -13.673035944363916
A 9.6039700910630028 -6.1041774899740737 -14.110116675527076
A 11.457735502855165 -5.9854918784799747 -15.001543009357267
A 11.947985349256136 -5.6792804617982746 -13.94018677972741
A 10.814394212782782 -6.0137522272339776 -13.908067944103371
A 10.024017860220493 -6.0933733504458552 -13.116410867834759
A 12.906845952159021 -6.9046108993216997 -14.282540417177115
A 13.241343468095968 -5.7382508604541309 -13.505248579946901
A 12.099889376675442 -6.4740858730512709 -13.20950787174705
A 12.348878730984341 -7.518269904867509 -13.477134418580668
A 14.150916867544035 -5.5633169281790327 -13.936841076357803
A -14.51264515334454 -6.7826537193564516 -14.393528626852827
A 13.630667579172096 -5.0617049043215525 -12.683519004743481
A 14.543361390234066 -6.1944683521806922 -14.706682709734133
A -14.69391676510859 -5.4667721997497107 -15.030365691364018
A -13.505771001649601 -3.856128172688003 14.628117632164759
A -14.249154815541143 -5.1181594465436939 -14.145129539913416
A -14.482928348772568 -5.187698437571501 -13.038583276620351
A -13.331928024084498 -3.1287288800238051 -13.590141363575853
A -11.312788064497312 -3.4926425685326685 -14.782382883930099
A -13.604946210920653 -3.9574439458812622 -14.241451245224287
A -12.64730575874094 -4.0182227516257711 -13.59080829371805
A -12.994370613326977 -4.7893836836786479 -14.231047225989563
A -10.780280168086081 -3.6459848190718995 -13.322623371687305
A -12.383439458676076 -3.4519321852471587 -12.389921947900957
A -9.9779596541901761 -4.5175973918193799 -13.61388666552903
A -9.9959662735243562 -5.1560863415648841 14.610710027956912
A -8.11767437418791 -2.8344603866614064 14.978363559963478
A -10.513886351946493 -2.3631672053000812 -13.691832415168484
A -8.4920067093010907 -3.7478161799195084 -14.546286991472037
A -8.6507637459760041 -4.7787127284332414 -14.702758020352459
A -8.9213439164180937 -2.2889944605357408 14.626964271995204
A -7.6245679363671837 -3.2424763897216584 -14.409910571612137
A -6.6836080058460414 -3.9018449857717163 -13.546633028113215
A -7.7071608954762478 -3.664595632886416 14.593078034308515
A -5.1244866834773051 -3.7037365332897867 14.84215379037898
A -6.6296247270411088 -3.8109072053017918 -14.594815666312062
A -5.711336626403007 -4.9727907451373339 -12.485892872421394
A -5.9043167449441984 -4.4939307301206899 -14.861689184248451
A -3.7963355943928385 -2.6550095742053528 -14.739308035609366
A -5.8771249572407385 -2.9618824254505292 -14.854704317628384
A -2.5676121473962841 -4.844223855630954 -13.644869248968975
A -3.5253717196751415 -6.0117524823405208 -15.042919164522749
A -3.1159466450888713 -3.4690600035365837 14.949466124285944
A -3.4228980754902345 -4.3250463308812916 -14.033801787135792
A -0.7518805059160143 -4.7313729421544837 -14.284141511827769
A -1.5965104147258913 -4.0682040939710076 13.890355373210436
A -0.3316556398326912 -3.8422114756565668 14.78917448651962
A -1.5267048709087674 -4.135430295683773 -15.007648255780639
A -0.83014321854210849 -3.6158727329856895 -13.456720321488643
A 0.60674951334882954 -3.9218515469380155 -14.905310136768195
A 0.80567544360100274 -3.3596309633995949 -13.852797716461504
A -0.61516756574434317 -3.2642439947239579 -14.549306849713457
A 0.1332596068493582 -3.9494643944622876 -12.84429415289803
A 1.5702063279975234 -4.2632047153315273 15.066696714523163
A 3.7205178298555683 -2.3554390252829909 -14.496886468997507
A 1.8083433027825995 -3.617637410497303 -14.246708920894454
A 2.5426638032179505 -3.6581311749695549 14.875758486620613
A 3.4749497063482178 -4.1252805440540703 -14.856868778993745
A 4.4087881562100222 -3.1270595782157069 -15.016670418262251
A 3.4451341966320861 -3.0483781836249166 14.890613541204297
A 5.1005078450091554 -3.732061224479664 -14.438258846806189
A 5.6203446147788432 -4.7899209297359286 14.848734831293129
A 6.8077755402538518 -2.8400559366606544 -14.802107509964756
A 6.1361550231509678 -3.3834539397489123 -14.239794416434876
A 5.8287302641337568 -4.5331218192056868 -13.81579929078114
A 6.5499727002666992 -4.3897482194493138 -14.581018421424567
A 7.845833258875051 -3.0389792324508655 -14.464056743169253
A 7.0995147699054062 -3.793051143044146 -13.886153933647551