ITEM: TIMESTEP
0
ITEM: NUMBER OF ATOMS
23328
ITEM: BOX BOUNDS pp pp pp
-15.08190489966774 15.08190489966774
-15.08190489966774 15.08190489966774
-15.08190489966774 15.08190489966774
ITEM: ATOMS type x y z
A -14.589728817259186 -15.040009516138786 -14.340386506554834
A -14.113995145201283 -13.936054316287509 -14.826762287588387
A -14.972023912262648 -14.107192030295085 -13.895427113933211
A -13.696958610895944 -14.646013969690475 -13.902759592245394
A -12.746072621538607 -14.408132580860963 -14.595767281073218
A -12.163630458556431 -13.508847015352483 -14.545354805602155
A -12.895297285156779 -13.990484947418725 -13.666007820360594
A -11.74082452825839 -14.71801030756105 -13.83012464971114
A -11.11009336444042 -14.422300710960048 -14.739082782127031
A -10.552654857438677 -13.676607533606223 -14.267410142723339
A -11.710226818548806 -13.421689936889701 -13.63151260126082
A -10.65312731054961 -14.679115277443891 -13.814459505863981
A -10.117430189015773 -14.800222105833843 -14.943397082266715
A -8.7321403181301633 -14.183958106383013 -14.863517401212818
A -9.3816104432316578 -14.117876742920576 -14.058406954527356
A -8.7992304502595431 -15.023551237378365 -13.854359496439464
A -7.9328782894659087 -14.980434676076205 -14.473581152920866
A -7.1030747121488274 -13.789751203561146 -14.586547362297733
A -8.1288159274542213 -13.972167231701727 -14.009162651033137
A -7.1519974512116935 -14.391426382798423 -13.765987885620882
A -6.3215905439841276 14.936162723827408 -15.071605679241507
A -5.4197195862841028 -14.127348981951036 -14.73425348327968
A -6.0843764520253636 -13.520544555116867 -13.977625174360437
A -5.3405313218084425 -15.071272846009334 -14.083178882665653
A -4.428278355001587 -14.696670995160849 -14.641359771565682
A -3.6632314899034157 -13.97316369120238 -14.674057551292956
A -4.8379474831237435 -13.755538940962625 -13.953517296914262
A -3.5905976455486504 -14.864284454236925 -13.951875459014902
A -2.8382648832271613 -14.900502566973351 -14.858861563316253
A -2.1019508422324109 -13.834633653884243 -14.4097112785963
A -3.2692054117662486 -13.934766112982704 -13.715208167488194
A -2.1767250524780297 -14.800076504632038 -14.097080322212923
A -1.2832438287768817 -14.541079635439525 -14.490830168665742
A -0.42146941013865896 -13.529842683108795 -14.783289099383337
A -0.94411239431511995 -13.805853497094464 -13.677076474821055
A -0.094482068980873399 -14.797218758316486 -13.519103566179789
A 0.1712763868527338 -14.422475974756457 -14.457592278115705
A 1.0261818411832446 -13.568939124471006 -14.412798245037459
A 0.093838032760865484 -13.670856868292239 -13.769971952097146
A 0.91098190752854868 -14.804210962345433 -13.784616170702369
A 1.930414541932596 -14.724334575148369 -14.200099758035519
A 2.6358038802265082 -13.933216395163008 -14.15522519280745
A 1.8775610904979987 -13.357825710264716 -13.723427994954863
A 2.8476748334736972 14.904310237157343 -14.26755239870675
A 4.1647519862990121 -14.758297869851152 -14.559269851135307
A 5.1946191147662013 -13.835163176495742 -14.939876465299609
A 3.8095281667385823 -13.819968032638489 -13.680956949784967
A 4.7919084733784194 -15.074418409167919 -13.470095633762776
A 5.1711314083608233 -14.701116741174983 -14.354477191869101
A 6.2141358216159235 -13.843631098633844 -14.810903359623536
A 5.4965355650233567 -13.8417348478938 -13.940108362535073
A 6.1315921164247502 -14.855990184664916 -13.765130997456092
A 7.2060298008852373 -14.675341967561073 -14.763400442034383
A 7.5988282182725753 -13.665520636418345 -14.860083697715186
A 7.0060621158344452 -13.705053477683085 -13.97953256824113
A 8.0789190437623013 -14.381283602381735 -13.8471702296507
A 8.6066264134558192 -14.175750895007162 -14.930602364073895
A 9.7603274089072443 -13.817206467143516 -14.935278931087366
A 8.5240377990804568 -13.414148622035826 -14.220007855331652
A 9.60327108713199 -14.696170774124873 -14.28527408946487
A 10.537047344637298 -14.622434806803971 -14.897997932429725
A 11.486775802138045 -13.917352543343522 -15.05400195712406
A 10.329673973752936 -13.961139551749005 -14.101113676886227
A 11.364823768849357 -14.526759460331967 -14.04467377667989
A 12.391147639249148 -14.679453031890137 -15.007264976390923
A 13.168709817906592 -13.71524674487007 -14.555361849522766
A 12.314902012826057 -13.717088085136915 -13.96319889279062
A 13.216562288714817 -14.322990359825475 -13.727950469526331
A 13.819717023042855 -14.695147922391955 -14.485056731567331
A 14.820007198700283 -14.488718002983713 -14.972084870680748
A 14.172551456389147 -13.656329494820973 -14.280513834895416
A 14.591571708490918 -14.950147324908338 -13.575208308136054
A -14.583033248505018 -13.064303414784947 -14.666613358579049
A -13.620868351351328 -12.056184015122721 -14.57217055382652
A -14.198502661396459 -11.853791560020444 -13.664770659465853
A -13.875775683219711 -12.790589339713346 -13.888374983178332
A -13.078773004581386 -13.051704888476966 -14.694294107055397
A -12.299969634405649 -12.277444394009764 -14.37693780276803
A -12.901757316428833 -11.515088399035143 -13.657809717981344
A -12.84069702094374 -12.912026276004712 -13.702299892369567
A -11.33769310434363 -12.851785742904529 -14.487010436306551
A -10.741161926150429 -11.823882458601755 -14.010361715443903
A -11.697126270328491 -12.01849585526023 -13.593891892050518
A -10.755731370371034 -12.888419835480164 -13.603706860095755
A -9.1442390911082043 -13.180729854677725 -14.81134602056737
A -8.808463282372859 -12.175259666733771 -14.511127952065804
A -9.6143154505030282 -12.078911509566131 -13.849603304481345
A -8.7017244726060277 -12.995188337683528 -13.930576682513708
A -7.8795773467416703 -12.882520782740029 -14.821449867366542
A -7.0496026585758571 -11.840905762062199 -14.619173805071442
A -7.802103840104885 -12.117537140663833 -13.920825205943029
A -7.0628833883071866 -12.884176114906031 -14.120769407440017
A -6.1406591662684571 -12.759114220482296 -14.642073837245608
A -5.3641051641635844 -11.898897371666141 -14.564703846386371
A -6.2400133170907175 -12.102730882760866 -13.71714879894567
A -5.3465385916397095 -12.86164425071922 -13.671654434411654
A -4.9027718637538733 -12.936824028179943 -14.669221963458234
A -3.8550159615038648 -12.18718496773363 -14.572606531884192
A -4.5549746948362762 -12.074622220078192 -13.729223849053419
A -3.9404617663628927 -13.207058379716333 -13.926913300053293
A -2.8680578988706782 -13.051530787815096 -14.574986765905811
A -2.1072799941249949 -12.184910926263315 -14.57533350627334
A -2.9640523012125315 -12.132109550583497 -13.836722397717466
A -1.6559998346152265 -12.990637784788301 -14.01366466512909
A -1.2445471712553033 -12.829489041596586 -14.935748508402551
A -0.29897299887852102 -12.032571275947889 -14.582192289678948
A -1.0781797077563824 -12.053750956408312 -13.71064593126415
A -0.48546809488411702 -12.854438692444756 -13.976714110890288
A 0.54150298743326442 -12.695805321072061 -14.509888543286484
A 1.3629147701252726 -11.997404805763706 -14.600122545238358
A 0.47591972804715454 -11.921470972362108 -13.562794235070793
A 1.2573320285519638 -12.567762307037551 -13.623966350959559
A 2.0722150685746463 -12.854544111704422 -14.579513041306905
A 2.9754305718856298 -12.323807497757741 -14.463847374685241
A 2.1033085390491513 -11.943838187510854 -13.321570157699988
A 2.8915442259712707 -12.85907948765422 -13.604505429214756
A 3.395896024580884 -13.253670038342346 -14.460864321527062
A 4.6458195009285319 -12.135393420406595 -14.797888891261191
A 3.8167656738527507 -12.345448290807223 -13.84159889718522
A 4.4547913440436808 -13.391245275602264 -14.361252208377696
A 5.5070396255066036 -12.894264324325029 -14.551501530170974
A 6.1705973681298616 -12.2240862678436 -14.908657207284341
A 5.0032515481637416 -12.372530693002712 -13.794919633176693
A 6.1805227066570039 -13.098190142490306 -13.812882716268332
A 6.8952974670428571 -12.944343290530846 -14.77578265693155
A 8.1668408656511602 -12.271219524195525 -14.555421070526467
A 7.4376182260645036 -11.815992578828066 -13.818346989105997
A 7.6253526676315984 -12.83275048121563 -13.910080064309655
A 8.9023410459772414 -12.842049092693241 -14.973147111937232
A 9.880673977810206 -12.375691467312157 -14.902586848745051
A 9.0133071519852894 -12.302718094478918 -13.761165286463735
A 9.5413891892812792 -13.200812315623912 -14.151021380976466
A 10.561267209093799 -13.129634018559809 -14.670245878243426
A 11.372336531941876 -12.392963690812577 -14.664597677574589
A 10.645174272595861 -12.148635492129005 -14.011225638027218
A 11.426317323006442 -13.256650921266436 -14.01674787265074
A 12.280783405965259 -12.80779290245396 -14.837850438559503
A 13.001452315733369 -12.14962376599677 -14.599679500681365
A 12.268579844774296 -12.517058448015307 -13.797082551232668
A 13.314373994387088 -12.818104895769469 -13.893440351772528
A 13.705031532971795 -12.905737904804967 -14.81330897436032
A 14.582274612458074 -12.449762548561713 -14.656432918558544
A 14.162588247820652 -12.158963166054189 -13.755115459139949
A 14.916442306892655 -12.978997052899874 -13.854774670681314
A -14.622032130586391 -11.749442922037982 -14.976648978795726
A -14.110405033491711 -10.620815782768036 -14.872168200679337
A -14.707649283775563 -10.629620372836879 -13.772037650732502
A -13.640318986443233 -10.70646073383466 -13.701588859131524
A -12.960413366213034 -11.227876397418589 -14.623942345239293
A -12.169763084667879 -10.317821273079792 -14.56174463808884
A -13.030376423218847 -9.7481159158037478 -13.306972924513623
A -12.009668974575796 -11.201119949360873 -13.096633394186712
A -11.89392269110393 -11.228046603925316 -14.231541316770514
A -10.410989519181305 -10.361680267238828 -14.980286305953536
A -11.354707678427779 -10.419466854515377 -13.301545266931736
A -11.006192508402044 -10.733340909764635 -14.204733594441089
A -9.9841181665318413 -11.445465353016861 -14.631327322924529
A -8.6196127507475371 -10.441156553371338 -15.021557288713582
A -9.7138984038442651 -10.718249612936718 -13.994729664190432
A -8.6795968781655848 -11.454676389423803 -13.799381370634915
A -7.9463253062660621 -11.109548603986557 -14.592152212477266
A -7.1790735909458911 -10.459375237659495 -14.348897743018002
A -8.1115758676011041 -10.350913194375369 -13.908096842758564
A -7.0423552429170932 -11.508469087891523 -13.63881773076672
A -6.2502829171278975 -11.21014935101479 -14.377246720171351
A -5.6478305793807326 -10.374932537901961 -14.597218166904792
A -6.2938657356401349 -10.175149118811696 -13.771960503322331
A -5.3487133367490411 -11.154572331960338 -13.568301346726919
A -4.6262444680900696 -11.191941384657165 -14.66299899464571
A -3.7908382681263504 -10.60933310682338 -14.783450561221935
A -4.5275507968360795 -10.293817389055503 -13.515895141063137
A -3.7954944828273511 -11.254886777421307 -13.963486082547629
A -3.0338155369525186 -11.476911771309029 -14.75505396483236
A -1.9963048573986859 -10.707756883844826 -14.717058381205719
A -2.7109231090260701 -10.662691030798248 -14.006045948383576
A -1.8927222434463031 -11.344005372735424 -13.734106674784265
A -1.0832959676828455 -11.117967243319935 -14.593031528530991
A -0.29945278333488468 -10.241023527622746 -14.304365132546597
A -1.1689777015249969 -10.582623473364814 -13.500773599190559
A -0.39127387971969635 -11.321556797836292 -13.809176856023624
A 0.48539890846347372 -11.263648248732213 -14.410529623874009
A 1.1901747672436735 -10.338237944456369 -14.376452322954735
A 0.4949197157081654 -10.523783955695286 -13.639722605761625
A 1.3419946566217227 -11.155782478197581 -13.684941920191198
A 2.2755135242652442 -11.512938449272184 -14.216707866709029
A 3.0614593198231983 -10.466250175349138 -14.73341143372669
A 2.0353112531974662 -10.435460143117341 -13.619218261961464
A 2.8693599157430958 -11.167331175430091 -13.432777384068968
A 3.6918502166459168 -11.322573224900619 -14.560656556331079
A 4.3448103090597927 -10.546752734753568 -14.644264959917356
A 3.5849524751439152 -10.508500084431187 -13.782743555880085
A 4.3693783374145045 -11.281296419646987 -13.787204297028232
A 5.331872894703868 -11.468173998037233 -14.156507299774042
A 6.4530448258210411 -10.806037490930857 -14.365366320508583
A 5.6585981607950986 -10.444617515305247 -13.833580063331896
A 6.3996583852001558 -11.761251438842672 -13.815228512329076
A 7.0116561307159255 -11.710703983906923 -14.729481046539822
A 8.1984783572492823 -10.284985296328834 -14.793098752944104
A 7.4514686444592586 -10.787339959512586 -14.119556967725121
A 8.3772877233544278 -11.392867665434123 -13.859707841910923
A 9.015447562854952 -11.609702088283601 -14.676077328620185
A 9.2942979830327808 -10.611693356713957 -14.692919099698825
A 8.9241729356105779 -10.476775731052738 -13.756250308212417
A 9.7342716343239459 -11.15901998171374 -13.80964271639372
A 10.214628674365271 -11.455524040379991 -14.675484708421632
A 11.379601657660418 -10.707707716193568 -14.601037378445502
A 10.495908646489493 -10.487261748749731 -13.758254943005081
A 11.39176044584495 -11.453884228648905 -13.774458025105769
A 12.170794903418789 -11.464955175294577 -14.507624857688178
A 12.749770856615422 -10.637346322195643 -14.805498666541153
A 12.252016463981379 -10.579390079625712 -13.816656548552137
A 12.889436967452381 -11.549995672722247 -13.774460442187644
A 13.903922908583638 -11.522631803531542 -14.839737155032326
A 14.480325480897452 -10.643016267831289 -14.945251981348029
A 13.705282960536778 -10.737603666676716 -14.216015291242194
A 14.918941121238605 -11.487358511485439 -13.819722227027452
A -14.761961231295048 -9.7559372625598417 -14.69562937199106
A -13.869086041686565 -8.9135670816279653 -14.493847431197453
A -14.486926560313256 -8.8004287372774144 -13.404187867731443
A -14.109604562201326 -9.7531796286527399 -13.827393355306032
A -13.150577662533335 -10.048761867452024 -14.539633887089398
A -12.124503259182582 -9.0863967535386632 -14.747946540133956
A -12.966983730102697 -8.9450677060372623 -14.008773554677679
A -12.066193310821175 -9.7359092981202853 -13.63863192522882
A -11.297169103055754 -9.6530566000868028 -14.354787911949686
A -10.549777289510844 -9.2709844691453434 -15.005086705541936
A -11.390433389625146 -8.8876754706608541 -13.701089400770256
A -10.331822479819527 -9.9306567768897587 -13.900027376960034
A -9.5833675823103945 -9.7074390798594692 -15.055253994432663
A -8.8999976469781199 -8.5989233982312498 -14.633651002405433
A -9.725572329592806 -8.8986346415869608 -14.046793318081207
A -9.087247270381372 -9.6970437313212834 -14.078170314028773
A -8.1665618749167965 -9.5168386479295126 -14.617508779157411
A -7.1248772245532761 -8.2707847363672666 -14.421624831280132
A -8.044713326277483 -8.4731110350507493 -14.046081174037569
A -7.549024499080133 -9.3738734872134213 -13.806303626147415
A -6.243124746425992 -9.2748814392904695 -14.698429819732439
A -5.5847309413073773 -8.502627149918391 -14.698620148124933
A -6.4054904127099075 -8.8162086323068554 -13.633973291557282
A -5.3393966868325053 -9.5334451352548086 -13.84651198467537
A -4.6086587836011157 -9.8027090731735047 -14.589885780540573
A -3.9738121473841859 -8.8712848049942146 -14.407905303314921
A -4.2747289762162843 -8.0371518383268992 -13.789239064339851
A -3.4527690810475771 -9.8335824569475534 -14.008989468012571
A -2.7484366557584279 -9.9763045382301616 -14.752035372850072
A -1.7393720634242487 -8.4041975373184101 -14.277698607045693
A -2.5053498134818857 -9.0992036511675352 -14.18847581529166
A -2.0132182397900351 -9.981148074621931 -13.745303646759556
A -1.2933218445909869 -9.9880863998949554 -14.762319444145191
A -0.38101288756780938 -8.7698761473644158 -14.277444886648544
A -1.1192544973346541 -9.4620241897827011 -13.899093900862349
A 0.050251357276671259 -9.4850480065797562 -13.653079056500713
A 0.54770358547159381 -9.6361882515779076 -14.70446837755382
A 1.251938345684346 -8.9102833739211906 -14.629641553209696
A 0.63292279881136604 -8.6729693217173534 -13.765970516499948
A 1.0938667514096097 -9.5801758037304801 -13.708899871189001
A 2.0008768267778709 -9.6431181913597896 -14.554390894131316
A 3.1951386510279396 -8.7996233204049279 -14.823335530662126
A 2.3648009829867922 -8.7291640409456974 -14.049982659202033
A 2.8378470723166869 -9.7692855755734929 -13.9974400697081
A 3.8319315406874415 -9.6057576701820953 -14.663627713695735
A 4.5401679304705631 -8.7383478770665572 -14.546485776104877
A 3.6919254777247841 -8.841676747074283 -13.632192727420252
A 4.6008856385225156 -9.6532306569946726 -13.934847039539051
A 5.614889834314301 -9.4636964115977484 -14.314845769048306
A 6.334819555132059 -8.7311014387378112 -13.91724946014282
A 5.5231041838645494 -8.6367682143623625 -13.188795338781178
A 6.4294453021453801 -9.7397596245577027 -13.466009225389088
A 7.1968761931263945 -9.7339493491172373 -14.64241461908215
A 8.460453264020293 -8.6432333719100516 -14.610400785437678
A 7.6009029434586726 -8.9432145169764858 -14.15983525380766
A 7.8919015233074505 -9.8852309787212782 -13.819466464879365
A 8.958187599138526 -9.5128333564761967 -14.681647545565259
A 9.7727603668134364 -8.8544570674221923 -14.815331830396724
A 8.5825428691217454 -9.0424940077544171 -13.623023011377926
A 9.6792242039798051 -9.2973674830639155 -13.784745719548303
A 10.34493151337767 -9.905376147524759 -14.654434513660789
A 11.491397370818209 -9.0002598254886177 -14.711315071937559
A 10.599293439793568 -8.9758652096499105 -14.05108294870867
A 11.63869190879538 -9.6905461523902758 -13.941171629470588
A 12.082241362922186 -9.8807027119909012 -14.921041720942657
A 13.291772615814489 -8.4248087845401951 -14.839186330336739
A 12.776240822215875 -8.8181744082955102 -14.068521310592887
A 12.967775031933146 -9.8855382458110608 -14.039117065542781
A 13.782459903323224 -9.8151148075134795 -14.637135299834791
A 14.687430097477892 -8.9685890611530645 -14.634511553659719
A 13.741175394061639 -9.0583715032994263 -13.931711576498689
A 14.536752372557363 -10.120987346698904 -13.95448723900404
A -14.794529192553137 -7.9376554218163839 -14.512614752215036
A -13.621759113898364 -7.0507504284841973 -14.875631989329156
A -14.081879648046971 -6.9006343142031135 -13.603335394084434
A -13.691159037821949 -8.043918605677348 -13.494646450342721
A -13.189235526998969 -8.2620603111221236 15.053066250620654
A -12.280520888663366 -7.1781095974869071 -14.526550120232899
A -12.914160074571209 -7.3839204910550169 -13.761438665150379
A -11.994811513831779 -8.1080525982412226 -13.957427925953695
A -11.415677083732984 -7.8899139939823897 -14.792275531581403
A -10.499540400757226 -7.1927924425594005 -14.628407248616167
A -11.33750727400918 -7.0633869054696383 -14.069282272384021
A -10.615758787572444 -8.3691828991659136 -14.303238680050336
A -9.7225259159094612 -7.9523693381524128 -14.683601628974984
A -8.9357478819064617 -7.0203486441799674 -14.68175803888863
A -9.6620663451967239 -7.2320847519615734 -13.963923291286282
A -8.8616862758988049 -7.9387584958311797 -13.779551618327725
A -8.1874308922139445 -7.7446001134227469 -14.77586613821939
A -6.9570721946586858 -6.9130864954804183 -14.563589639961778
A -7.780983869126902 -7.081505821077906 -13.779327263467936
A -6.9850758539196205 -7.7461359529084231 -13.491635003416519
A -6.2502935152188943 -7.773419052412704 15.020906172221565
A -5.4126353679564518 -7.2866028268141783 -14.461751752781637
A -5.9524554606187037 -6.955859481517165 -13.647184253301573
A -5.4687115140420026 -8.0238713833429394 -13.783756558831191
A -4.5987634445840726 -8.062084549770665 -14.758871998036593
A -3.6115910574017587 -7.5302703765089563 -14.811598951142862
A -4.8643305185510064 -7.084557061615115 -13.64663428301952
A -3.2555927107305509 -8.1879634269959798 -13.900430681365833
A -2.6578014700687542 -7.9802532423989359 -14.916683180900723
A -1.66928867520526 -7.3881540689562968 -14.493010115013494
A -2.8198901307485804 -7.0023744740690841 -14.266123361538599
A -2.293800639222074 -7.7794834316371517 -13.670455803867855
A -0.75675379002927912 -7.9698533808438006 -14.781759343065808
A -0.17774422820238547 -6.9728194853984782 -14.878480228976448
A -0.86763021816093211 -7.3957828486734929 -13.885541714041906
A -0.0092104236806527344 -7.9245334326089134 -13.521063324469317
A 0.23213866727008811 -8.0542825323429845 -14.6237528526371
A 0.95008339424607791 -7.3233879671848721 -14.834703901532725
A 0.72826899104640819 -6.770876688163586 -14.026338796094878
A 1.1141254575685562 -7.7135240869598816 -13.873474437045488
A 1.8034527043307182 -8.0271784337724323 -14.639160090236716
A 2.7879303263903195 -7.5176253812376617 -14.576749057483587
A 1.9739918423314931 -7.016270936505169 -14.063715804336164
A 2.7704189204627205 -7.6779098449180605 -13.508963475900897
A 3.8584421466852574 -7.8906191214521177 -14.260193552324596
A 4.5503488838387556 -7.1641556564590418 -14.554259157807822
A 3.8292878729986564 -6.9289261422231387 -13.814495926519571
A 4.7368466662674589 -8.0590766335034907 -13.530081370904275
A 5.4771106144525028 -8.3109333646690082 -14.279284907871418
A 6.5814930836261327 -7.2672718171567148 -14.662325510165426
A 5.4399046818444861 -7.0448253741044562 -14.054706961239996
A 6.7564394092953579 -8.1727597851385188 -13.016512478120127
A 7.3836259529319648 -7.9303333293635347 -14.331429528558925
A 7.9947762818857937 -6.8737981494237443 -14.882869332365752
A 7.4424135658733981 -7.1285973047891993 -13.421001943992486
A 7.9858597913820972 -7.9922827174081235 -13.503069360380849
A 9.1739268550650053 -7.708140421621148 -15.010081595174537
A 9.6412043162177099 -6.7542935090133724 -14.876136660194014
A 9.0059193997632843 -7.3066612845485404 -13.430110673904155
A 9.3407499060351817 -8.3569953186253656 -13.740297375210206
A 10.213685135909339 -7.9482119024803497 -14.519321127319099
A 11.371186228465788 -7.1301682411911189 -14.80852085049418
A 11.000865896932304 -6.9176297309146779 -13.87959094308685
A 11.407881863721498 -7.8672307566655064 -14.108755913515518
A 12.386096515517846 -7.7412801660263231 -14.699803766203022
A 13.401611829392442 -6.6834145677990433 14.940862709765943
A 12.257188229615739 -7.0505842058783861 -13.943538670775036
A 13.125393438983892 -7.7870987602452315 -13.973357531215074
A 14.147597040035038 -7.9154088296610565 -14.957135924324637
A 14.912363965146088 -7.0641691894163587 -14.319428321359048
A 13.884676182874337 -7.193150012922195 -14.260630195406712
A 14.46174469320637 -8.1258299689895441 -13.987611513645255
A -14.39836960992179 -6.1696812672507342 -14.716085894085518
A -13.574944122202272 -5.38524870143657 -14.800903068357417
A -14.176528035829643 -5.8887777011355116 -13.664001403748243
A -13.322211902897591 -6.3277910055902025 -13.961009308851581
A -12.753806605468354 -6.2607262393419409 -14.783530756250022
A -12.027719439475987 -5.5408923392760174 -14.698172770335253
A -12.709342848848388 -5.4951588344599624 -13.704935866175958
A -11.935406016482577 -6.2994117204160203 -13.783758770497755
A -11.234770047345336 -6.1384310571384697 -14.524811218779618
A -10.350725638412076 -5.6206490049893594 -14.706814231779854
A -11.148670913317867 -5.3131707206042957 -13.51828495681487
A -10.398906372420033 -6.2775186388414284 -13.932263192667497
A -9.5083102019162951 -6.1463824867339616 -14.519357581519182
A -8.2843549616768151 -5.6493257228603051 -14.63783216875721
A -9.797572295420526 -5.2742490042902874 -13.541511520121885
A -8.7149952479735315 -6.3673417078804144 -13.937916504420002
A -7.9875438485792776 -6.6775757080463869 -14.776534790415417
A -7.3164960610783005 -5.377212291178064 -14.836914921523624
A -8.1488340263752566 -5.5234796885323316 -13.571204404657914
A -7.0479004911404974 -6.151573302592098 -13.8849597142404
A -6.3417782078295488 -6.1196865373219733 -14.736091697183401
A -5.3799138278017704 -5.2154693697730261 -14.701704040842175
A -6.1692417684061081 -5.5685960894499882 -13.442573523162149
A -5.233477833018422 -6.130260205676044 -13.551581631680634
A -4.5506436657987539 -6.1880271995364176 -14.613259643326941
A -3.7204907091155848 -5.4160147808745789 -14.691416547565302
A -4.2910829917335338 -5.6563453222826316 -13.564882758502211
A -3.6748475683542225 -6.3573052022701786 -13.926757639051159
A -2.4151612011523342 -6.4168207473531096 -14.984678125620547
A -1.7678428785743783 -5.1132518976161423 -15.035023423874494
A -2.350945513123357 -5.4067854086514764 -14.193811594503707
A -1.7715388053560814 -6.6760003010684787 -13.775475577271894
A -1.2739003640882793 -6.1495120376707337 -14.921810570731365
A -0.42296261596043033 -5.2196033786879497 -14.821150580535136
A -1.1091352962591883 -5.5775501498732982 -14.113954792001161
A -0.27053929948272593 -6.1287271042147342 -14.324867047671756
A 0.66197372848501856 -5.919260123368284 -14.675509456382057
A 1.1332111806814202 -5.0896499210540522 -15.00659215741252
A 0.37024529278955953 -5.2578417937487814 -13.89208315878609
A 1.3565859274660548 -5.8085073410640629 -13.894553866539818
A 1.5751544100728789 -6.447423560433303 -14.793789061937607
A 3.2011377009672768 -5.6676044074952356 -14.852250791551185
A 2.2796609686851252 -5.5875146514433993 -14.327951437751931
A 2.8321256643188932 -6.4982837569294318 -14.212762927284396
A 3.9761059071518181 -6.315123725367024 -14.697465267934096
A 5.1089547577721 -4.9967481679003294 -14.816194136137524
A 4.307251827336624 -5.609381727102539 -13.985227494844558
A 5.0359302268098762 -6.1806961450984481 -13.547041181501582
A 5.5869996943100171 -6.1844374814412237 -14.595819006514963
A 6.4602518849231521 -5.6631674637609093 -14.536278631545445
A 5.4510068921823631 -5.3348560588496587 -13.895152863246901
A 6.4779075475909327 -6.8010184736815615 -13.756270274759988
A 7.1767258201208151 -6.4110967554356773 -14.531455565693678
A 7.6641659474060821 -5.5348856656299548 -14.650837391352773
A 7.1431369581682436 -5.6782101250977961 -13.710497370579377
A 8.3307365679682714 -6.5064633473133116 -13.870307499321095
A 8.9400870247167195 -6.0288955062781833 -14.728155546064881
A 10.084032968158924 -5.5312494186102352 -15.053244594250675
A 8.9461095648845355 -5.3687364960930903 -13.969522184118537
A 9.7051174407613523 -6.187649870000528 -14.03954724737596
A 10.619318719733847 -6.3773504166959469 -14.670963918121656
A 11.24989868340095 -5.5494336744936339 -14.65230039285329
A 10.39313694543165 -5.3660737312295472 -13.999166039433815
A 11.042775671950887 -5.924065319729511 -13.455406546880122
A 12.217589891195033 -6.6411208409751561 -15.058635618375073
A 12.86318454554684 -5.8041306718274779 -14.626034513268426
A 12.077877259151697 -5.9806625209609754 -13.927134478305181
A 13.301457969333791 -6.4876088586284082 -13.790680094305806
A 13.993827115040711 -6.1219337387848691 -14.417286872889099
A 14.812133328760707 -5.5169123377893889 -14.664255341258885
A 13.996475074386474 -5.0275498005439676 -13.670329041214606
A 14.837816522634521 -6.0885889109430495 -13.781911379953668
A -14.616691864846919 -4.8278614493657743 -14.783705732643082
A -13.797110800253705 -4.2707087623322586 15.069499048925742
A -14.526539846738279 -3.8348290942731458 -14.009661926131335
A -13.952903023831647 -4.8654787745993247 -13.831059028224743
A -12.89838281779855 -4.6419168570348441 -14.604024412873214
A -12.36972710530428 -3.7032938493884107 -14.722325511926874
A -13.49774822303316 -3.8384609408721562 -13.903688993456095
A -12.212460034278593 -4.5167269531604912 -13.810425507019184
A -11.29688248868843 -4.7876356095037211 -14.423288659738617
A -11.466879767286594 -3.697237074935642 -14.266907616807629
A -11.455752099274839 -3.8283673899245629 -13.253076189483584
A -10.476437528960917 -4.4678803418750883 -13.888555231089143
A -9.1115160167729297 -5.0453139511594252 -14.278646855912353
A -8.574715949774081 -3.7823523295736283 -14.762223322077652
A -10.105255392987926 -3.5528975887416139 -14.242247708634237
A -9.0810060770354788 -4.0623671350316002 -13.915266892173449
A -8.0310641766168178 -4.7063425360149331 -14.258047840254203
A -7.2360767013641363 -3.9137895295368916 -14.738409370672438
A -7.9790706221394592 -3.7474059327275735 -13.933232197691567
A -7.1909039727612454 -4.4588308182579377 -13.750410137431851
A -6.5412082672452652 -4.9943317078669409 -14.3154405591045
A -5.450347167201735 -4.1203899347813886 -14.799139008682307
A -6.3946408530234375 -3.7875682401250188 -13.879249125021037
A -5.4338023317906234 -4.8160635023092944 -13.636860820800887
A -4.536545207325041 -4.7015786085511788 -14.286031365678143
A -3.6035328830299291 -3.7608708085331961 -14.676897267317615
A -4.9079999251248578 -3.3713615332151035 -13.995353449783902
A -3.5354243427391694 -4.8238005885819799 -13.886549520186362
A -2.7944316947937522 -4.5662419806967733 -14.829451274432291
A -2.0654629383735035 -3.7791264212732423 -14.644521836168787
A -2.691108913794888 -4.0703846482134436 -13.880259855424686
A -1.5054293680145754 -4.47687461801043 -13.473378169647239
A -1.096418887440173 -4.4284816125353759 -14.737464537204696
A -0.31160431555695306 -3.6390306586537524 -14.841755400477386
A -1.1369294961927023 -3.635571089805496 -13.895450995869158
A -0.47162651261738175 -4.5050666853501014 -13.873475608038914
A 0.40911457438691551 -4.3707295225343898 -14.797588170515173
A 1.4244589106461276 -3.7631807269864184 -14.730909201717807
A 0.50293068585454059 -3.770552047678728 -13.83583638473536
A 1.3525989860751819 -4.5507998032587134 -14.103804395016581
A 2.0708847341110719 -4.7181647726145988 -14.794574031021117
A 3.2350120400185083 -3.9044377972716529 -14.659970636381349
A 2.0914584408352663 -3.8856723445870092 -13.958651697265688
A 2.842186475283365 -4.5904648759571165 -13.981291892447214
A 3.7114094443527295 -4.8142908327577354 -14.577090613152928
A 4.7031553737471876 -3.8686885580822792 -14.508376270730126
A 3.8363003934740734 -3.636664551832741 -13.892321200483286
A 4.7470802432648567 -4.6297260833779283 -13.757487793878242
A 6.0488324717051061 -4.6047518646160537 -14.454376432599844
A 6.4740419823225466 -3.5076422085670997 -14.674886054921961
A 5.7000413372685372 -3.7631438618216655 -13.884507293591691
A 6.7421502188308429 -4.7103248150992494 -13.668013720548837
A 7.144726883532317 -4.5092805212452554 -14.850389680990078
A 8.4369762210970194 -3.5478064720087454 -14.889284611666843