ITEM: TIMESTEP
0
ITEM: NUMBER OF ATOMS
500
ITEM: BOX BOUNDS pp pp pp
-4.65403283105303 4.65403283105303
-4.65403283105303 4.65403283105303
-4.65403283105303 4.65403283105303
ITEM: ATOMS type x y z
A -4.1192284602309188 -4.5857496763053947 -4.3310818743499278
A -2.4480894669293991 -3.3092224162358606 -4.0392406539726187
A 4.2584921727352478 -2.5054527303512022 -2.5802535821259651
A -3.0398734470997764 -4.3221453675057235 -3.8092591350137899
A -1.6727417538293488 4.1538355676803 -4.3889695550448673
A -1.1309801986842136 -4.1736910293972853 -4.5519997927321283
A -2.2349542586504336 -3.4715473328463062 -2.8435073909356778
A -0.5907042415200715 4.4952135056974605 -2.5028511113795484
A -0.50727916576469356 -4.4145943448456846 -3.5682871611203035
A 0.41317059243341664 -3.4586706726912677 -3.5179812178471925
A -0.18483517375638647 -3.8292624161210562 -2.7979800079801262
A 0.4792732592185458 4.6068130949108017 -2.6075465210364737
A 1.1882910512061862 4.1578602163586735 -4.439294373990994
A 1.594184494375134 -4.2894660483283333 -3.8069236542119227
A 1.3294952501883526 -3.8684120598800731 -2.8850715796536854
A 2.4494790228498164 4.3464103999735029 -2.90865432484481
A 3.1130603940712525 3.7018630343707288 4.5602723761132564
A 4.190127849643023 -4.091990426179767 -3.8686038727272964
A 3.2785224977658953 -4.2970131373316995 -2.5844876754531798
A -4.0998924801647405 -4.2326081449018425 -3.2474982136952506
A -3.690174848522302 -1.8314247033306739 -3.4764242438365049
A -3.3687423242801038 -1.2860766571906581 4.5664734632431543
A 4.3698507571627747 -1.5242450823498903 -2.7692007617751853
A -3.0088801228030628 -2.4169193599697967 -2.9167026756087138
A -1.4193400870703066 -3.0710426345997441 -4.0902200684342702
A -0.63377904649693351 -1.5140456386980605 -4.0742385951145241
A -2.1220724606636283 -2.3288539226029772 -3.4869863520898456
A -1.0654391126109355 -1.9827934053050531 -3.1047738479340405
A -0.51007105918269846 -2.9746398314491196 -3.3163247189707152
A 0.43682668395425706 -2.6882175868445635 -4.4654742652456996
A -1.0255210286006273 -0.85271770780807277 -2.5534812468871322
A 0.70931128436897228 -3.0180026278237539 -2.3994153992183191
A 1.5587776641991336 -3.0833042294097228 -3.5416754316130827
A 2.3919413028341276 -2.5075173812546789 -3.5886951898593074
A 1.0407716719484557 -1.7347150235383419 -2.692522594321364
A 2.4276858616408687 -3.9618969850004784 -3.3071100026475406
A 3.3202919570296681 -3.408732456945339 -3.0801911734634166
A 4.1390382596795279 -1.4773672989260185 -3.8102802901541639
A 3.5084022829351604 -2.2087111809313931 -3.173607145632162
A -3.9854646910483611 -3.1226651543354369 -3.7873740453521694
A -4.280598286214687 -0.98219521695620404 -3.935649577236537
A -3.6721930164558714 1.325845664593051 -4.4619037609067824
A -3.3495578112210365 0.25462574620228395 -2.6043247648280468
A -3.3869884281242792 -0.40050906102211986 -3.3816377396831259
A -1.4558263927607964 -1.1075881795752718 -3.4993304044228992
A -1.5531061251474463 -0.41352247911047285 -4.2969064886120281
A -2.2074982462224808 -0.34219375641086092 -3.2249944258312642
A -1.1668257591996205 0.24896703154781127 -2.7504122037167411
A 0.71238579695902005 -1.2130517242462009 -3.5986997766000384
A 0.64098957182292327 0.058854651853367954 -3.8240927633410706
A -0.20831853419408233 -0.53620126138667812 -3.9881857350323182
A 0.4564128462677397 -0.81830065103167737 -2.5097941142472067
A 1.3147461960908911 -1.5327226224204262 4.2896434162631634
A 1.921882889060184 -0.040161291312616837 -3.7646773544621355
A 1.9353827162558288 0.85173638628424519 -3.2118608959971358
A 2.4376605504623785 -0.45173785234293262 -2.9203756611734635
A 3.3321141820851405 -0.40709891018012506 -4.1093489771197067
A 4.2645877072384408 -0.16972609306423142 -3.6972593502355711
A 3.0392351174922023 -1.1700301935887623 -3.4596790961522768
A -4.3409833963108655 -0.68667276659831256 -2.9177419630130847
A -3.7674910052593487 1.6664279901493741 -3.2470309402136426
A -3.2172583356854725 3.1307369693100533 3.9908813813635593
A -3.4702684491090197 2.3347251470707286 -4.1249603493929667
A -2.3622057350572256 0.36134582848043523 -2.4465938321519269
A -2.6852269669081377 1.4335642812266995 -4.2162120594646515
A -1.7952788087304445 1.9169139290801822 -3.6837445224957626
A -2.7400150092279709 2.1368576146710381 -3.4178525913073874
A -0.66133661979260139 1.5396769323277031 -4.3468734016174491
A -0.3506423967848426 0.60895755913242255 -3.8925244903508562
A 0.19196266391455269 1.5657762947946108 -3.5641710337582273
A -0.88878387564174455 1.3473859156752075 -3.1852620517089973
A 0.89709652324796219 0.89222726248503126 -3.0217127802385946
A 1.586023043134889 0.51907332913734627 -4.6292519052794949
A 2.7475862149593082 2.5712571155005626 -3.9560455150301026
A 1.1336283442353037 1.9255217886119516 -3.1820793307197843
A 3.1542742584873849 1.5070887255533203 -3.4656189665439032
A 2.8050286523083314 0.45370040613565826 -3.623137975503254
A 3.836017282216603 2.2291014509930527 -3.8689658320794083
A 3.442665341576757 2.6167095938329954 -3.0287335664249997
A 3.781422042248519 0.68270138695709104 -3.9789318725007945
A -4.2964420291130194 3.2402266520408483 -4.1183813444315867
A -2.3985769142981099 3.9729787812335569 -3.4777227332136058
A -3.5854036939743215 4.2299886940110261 -2.8971568251560713
A -3.6250300460112088 3.0089480834702456 -3.3246700316523197
A -2.5179251658714308 2.3855152811938871 4.3924574403993795
A -1.7014013777048342 3.254600061319409 -3.8232484552717252
A -2.7455937877802579 -4.503580357536495 -2.8064148942262661
A -1.4688346946196325 3.8402464958220377 -3.0229609412669149
A 0.21563904168300538 2.6607065072056648 -4.0068511692704645
A 0.39968816383120903 3.7753044452744322 -3.9354550947753464
A -0.446236609993165 3.4028976374290973 -3.0058184022897865
A 0.13946252725193112 2.4772015554826412 -2.9062017871555303
A 1.5921970108246306 2.8002720759189117 -3.8008902388597896
A 1.9748597959299021 3.7751455333112518 -3.7634213825842449
A 1.4163595470889752 4.1370619879529604 -2.9086571726938284
A 2.1483099679175313 3.239585660096572 -2.907969294414106
A 3.996734024559681 3.0660311236676878 -4.4303743334003602
A 4.520141586076722 4.5427146316339506 -2.617483535122326
A 3.6717831780986807 3.9160510789381591 -2.6384553117423191
A 4.2807502773897852 3.2482197651146807 -3.1757492529459204
A -3.9046790914450664 -4.5372313758829304 -2.1115733401855152
A -4.0829352630360987 -2.7642080867432552 -2.6886688947363657
A -3.7560203575631914 -2.61787768309578 -0.92240034615946276
A -3.1493660616344705 -4.5498411474607972 -0.77490838267862883
A -1.65270238372154 -4.5578380845281492 -2.6208803855851475
A -1.2901906439711195 -2.8505470960736097 -2.4710720906021937
A -2.7775307538305753 -3.2621538635248268 -1.0049440938229544
A -1.2721906978278583 -4.4607601503056662 -1.659587012250773
A -0.14433700659084661 -4.617591914568961 -1.4928310966544034
A 0.36037817889905427 -3.2205200043318802 -1.3192659459586504
A 0.034851814014993418 -3.9216053948495495 -0.62380806157654101
A 0.76301286268953472 4.6526258486220691 -1.0407959560968407
A 1.4043954922256012 4.456219068679836 -1.8284724434156299
A 2.6482383637094626 -3.7820514604613034 -1.9801253186047785
A 1.7620666850456526 -4.1907444461793739 -1.0346362345198374
A 3.5075727257088962 -4.2233206429929684 -1.5099959024084277
A 2.700177913516062 4.1542488509416602 -1.8759141817903429
A 4.4595197059586411 -3.4366220348382512 -3.0920597857084049
A 3.5899943947289721 -3.3278546989325353 -2.1165960431618145
A -4.3836355766200441 -4.515011164403691 -1.1978629816864468
A -3.9939238070293235 -1.7907071432329744 -2.0621461729321138
A -2.7207527206763422 -1.6060226012115442 -1.7252876299631186
A -3.7721961982367063 -1.5228331551205023 -1.082891734616928
A -3.0688765758025411 -3.1859124670976331 -2.0020474433403508
A -2.1751599630012057 -2.498080548052259 -2.1449379711165055
A -1.338308002329974 -2.0291627350862314 -1.6485612702300492
A -2.1527575518701703 -1.1765932674053667 -0.88800995423919604
A -1.6482146065525682 -3.2076565887288577 -1.4563389501926904
A -0.25820881222533471 -2.6896597011140169 -2.3844329659987329
A 0.60844597315225413 -2.1629381407356361 -1.7732919333023334
A -0.30626420727940912 -2.2990869087403265 -1.2639749169556882
A 0.18941552541112608 -2.7653433356806993 -0.40311078092665054
A 1.6183135335684926 -3.461451966450054 -1.7866044662643792
A 2.3651664447110408 -1.7160746162282066 -2.5314487845318134
A 1.5631213640485415 -1.5033164278476485 -1.2199346195848648
A 2.4820995101781032 -2.7997267378472177 -1.4523838641821938
A 2.2786941960178386 -2.9896489907210437 -2.5915692167701212
A 4.6378574759963263 -2.377721814551879 -1.3552478774281091
A 2.6475911498310234 -1.6892762015657834 -1.4352379258516066
A 4.4033279552875806 -3.5525075767799748 -1.0043124699415553
A 4.530259835616417 -1.0564200226264422 -1.8613522884764291
A -3.2450394982315527 1.2635287287795172 -2.2294554131607138
A -4.0159859515562077 -0.46001599323361664 -1.2843530282294877
A -2.7911644655995489 -1.1023008047523735 -2.8072569274292025
A -1.908517964824703 -1.3729915515321103 -2.3601925124334713
A -1.3883813337762885 0.018142011894325235 -1.6944722918942015
A -1.5974892226885224 -0.3182342707477685 -0.5138332220119004
A -1.2508630169255683 -0.94185182564365166 -1.393821821933916
A -0.43884334200070901 -1.4432954863504384 -1.9204303740908351
A 0.64959581381255571 0.23764358577002648 -2.1349356592346056
A -1.3341348621669002 1.011944992655669 -0.72600056041341843
A 0.86937673256700976 -0.59898870185529396 -1.5029903863275094
A 1.6048640064318147 -0.97703165735896746 -2.2976561656651988
A 2.9540365166905884 0.84037128517122039 -2.6470107561455216
A 2.0346895235492459 0.22648045404414455 -2.1786293332168736
A 3.0095095489331589 -0.964913584651933 -2.1802385011050944
A 3.6810823250520559 -0.57920966394857243 -1.3418173998963543
A -4.4354265328961988 0.4820439244916136 -3.1662420970990302
A 3.3343655149844968 0.19111228629653984 -1.908055893372534
A 4.3272016341119635 -0.91996802383099707 -0.48665341047434091
A -4.3543364993640328 1.2666388329105651 -2.4484612126411611
A -3.3603865895561489 2.2568331175851251 -2.5399873796220986
A 4.4006065388342854 2.1147573399271886 -1.9110884015469358
A -3.4287429674553356 2.2945996776805773 -1.3466147093920522
A -1.8224556634170543 1.7580170221810376 -2.5860471424922977
A -1.4508477461867844 2.1713135005246258 -1.7229566521287576
A -2.0004363995660235 2.7779408744552199 -2.8179686300241666
A -1.118763387095747 1.1628357517108514 -1.9249260706416991
A -0.26434656587368099 -0.23529502265268293 -1.9005797269455929
A 0.45818733874018613 1.6480592378631316 -2.3464185518029685
A -0.44388229835961202 1.8803806652203987 -1.6836103044481343
A 0.45453062709911074 0.10061828956798498 -0.90274351255969865
A 1.473362933534361 1.3021611672111015 -2.2484542295813124
A 2.3610127259223956 2.2670974350715078 -2.4963081324074698
A 1.5866139206892644 1.9107493697504001 -1.3499641605585351
A 2.5835600437015187 1.1130838575164737 -1.6731038401416074
A 4.0445712818366291 0.9489071239339949 -1.9357407187128575
A 4.0756190672190913 1.2144190516533078 -3.013631084667852
A 3.886604197679588 2.5496269115113908 -1.0201700163499576
A 4.4804246630169571 0.16076864411949837 -1.1265920018281184
A -4.2731282188681101 2.915801372532866 -1.2935472801983567
A -3.1696506363587704 3.3424955478027729 -2.4075867087321967
A -3.9720164325509737 3.8894375889930384 -1.3584382849771257
A -2.809200335121814 3.4989104935011608 -0.99050844933398696
A -2.1755766353714012 3.0391667180932034 -1.7192625266503232
A -2.5062765180284936 4.0944750425949579 -1.8824379470125525
A -1.992978057037567 4.0992028320363829 -0.95224065402674285
A -0.87616270660221796 2.6636939658318917 -1.0643299264575763
A -0.1726559372805172 2.9815904735574326 -2.0242809124613932
A 0.62770025216442538 3.6766273607533821 -2.1951049741642294
A -0.058220291326743882 3.2468430191649764 -1.0049111459299671
A 1.1588909330640433 3.1245078360395944 -1.118496851987314
A 1.4357538216722359 2.641665799931598 -2.3942845346442074
A 1.9749920177693601 3.1959960912828236 -1.7129705966597137
A 1.729180530523639 4.0512099516241999 -0.90390654460526576
A 3.1638653860232657 3.6384129842909481 -1.1333126731764678
A 3.0257297663990896 3.0584817809670586 -2.1697474249007032
A 4.1012110458321107 3.1141277469006137 -1.9706113510218823
A 3.9733408924695914 4.5830767271153272 -0.61174502708446299
A 3.4275326673596056 1.7664474493519493 -2.1277989716516945
A -3.7401033578955607 -3.6258291153170856 -1.2643329011269671
A -3.1055129050041836 -3.5106669556306014 -0.0076591449157093414
A -4.1518294694208207 -3.9465825821034057 0.85063477039400537
A -3.2173290684791511 -4.4201955388367535 0.59667206183876786
A -2.2543596736185423 -4.4143070269417333 0.064604990641838778
A -1.7329707661366986 -3.760144205375425 -0.61163611087780911
A -1.3263200604869243 -3.9663144899244753 1.3619607370650142
A -1.1020929134127919 4.5030128820984938 0.31366255566092605
A -0.11109159735779298 4.504261536539107 -0.048501461601778081
A 1.0963997411421207 -3.4789644819155305 -0.11886937320364077
A -0.97462600909301267 -3.7042888373170961 0.28747741434192126
A 1.5305111171769767 -4.4512073931243732 1.0257255448882754
A 0.86023145854690874 -4.5396099472502209 0.27186793389932429
A 2.3032140758063755 -3.2996370336149035 -0.59243517434227755
A 0.6665578319341342 -3.6595176879307121 0.80410724859869254
A 1.9592460917330945 -4.3030143371910876 0.032841028132493219
A 3.2296538823757492 -4.3535228789837541 -0.044258881336123997
A 4.2013239634569297 -3.4386646618634935 0.40578701249720794
A 3.6814143566285473 -3.4646137876263334 1.7161945909949172
A 3.9880122759101582 -4.24386753386844 1.0348289556579102
A -3.9258445754495463 -1.8408149066254114 -0.03938872631240891
A -2.889473731391583 -1.9978909795103681 -0.24292012524424189
A -3.8177177544244318 -1.8775166202400067 1.06957835844706
A -2.6254828846287759 -2.3947831085915081 0.84363211622610956
A -1.9430932769487197 -2.4017060799168544 -0.055659790861844291
A -0.91713253798950967 -1.7592231403623746 -0.62227070774200688
A -1.6560027549929393 -1.9714279216765833 1.4334376188911779
A -1.3254966599601981 -2.9232573596090079 1.1695275279874269
A -0.90017251633828765 -2.8076571071865484 -0.42155031118258013
A 0.024216427184692097 -1.6241460396855645 0.16697887574947579
A -0.91590037444904815 -2.0311303286713809 0.64439036706897801
A 1.1272170696096937 -2.4771292583392412 0.57057487842390031
A 1.6623551384936415 -2.4104577623578547 -0.67025892875300608
A 2.7823062018697584 -2.3100625406365953 -0.56244534319732098
A 0.74067711968213323 -1.9660244027676694 -0.64560303126344276
A 2.3748112599676201 -2.7263181808934291 1.3598735174028602
A 3.6681083497269809 -2.7366631070580136 -1.1708618046397954
A 4.32476291042975 -2.6375033885498205 -0.42246412515184906
A 3.4984351449098621 -1.5806992023809252 1.3241951256155711
A 4.6072729406770616 -2.4194750832245862 0.64977842953760567
A -3.1210263224705956 0.12333068658242184 -0.55374845505474557
A -3.2140960639171441 0.42764504066164788 -1.5342696312395778
A -3.3944852587726166 0.036309365957070384 0.55884765622602084
A -3.3383896908933202 -0.93563648086621021 0.86879591446602977
A -2.4284704904418755 -0.44931598950941243 0.22992989620118243
A -1.3642462214157864 0.0050140717803149951 0.44595967828234118
A -2.5507269944323561 -0.46455537466339542 1.4163034231492972
A -1.2599368118831635 -0.76328996344125688 1.1133381536377585
A -1.0356484915037185 -1.0809756403645858 0.1310205788446315
A 0.54717050871934103 -0.7438468648764861 -0.31718177493242949
A -0.55502317635523934 0.21673393928232312 1.1515195550879231
A -0.019410237746239335 -0.82898314079718594 1.0570358382992009
A 2.0012139028298868 -0.57762121318310244 0.23660543787418697
A 2.5280099512813536 0.24842179060811997 -0.65579671599075884
A 1.2883140678748417 0.21997888875975416 -0.12034323341179877
A 1.9738432317728563 -1.2936839281514045 1.0246167603878475
A 3.5343611693520951 -1.6415472192421157 -0.78647125676667451
A 4.5421258280383823 0.070824950525984184 -0.025235050219012775
A 3.4138301477724302 -0.23772150437578915 -0.2273923127627776
A 2.6054329981240394 -1.9977948641682977 0.57240039614397287
A 4.3642530662010319 1.1405667078675812 -0.46508874458460836
A -2.966471920400489 1.2759251730295118 -0.77044487200032796
A -3.108219767059818 1.1400183536238642 0.33218935164703095
A -2.4141553754285821 0.93282460532485967 1.0296654351014176
A -2.1785991168038805 0.39558552203224107 -1.1559153650410092
A -1.1184316224728243 1.4961235590835757 0.18970159726906702
A -2.1545281462589805 1.8976593548247473 0.30693713468815215
A -1.6718523358898407 0.1819400616173065 1.5974681488656675
A -0.40452748079222289 1.4525414918995108 -0.56675533504847497
A 0.72512809166127368 2.1640525241062321 -0.36617746946688035
A 0.96972706686286902 1.2254929890048221 0.15821915246547041
A 0.45458537021605894 0.25749551655946235 0.91244345088258227
A 0.71531253309097809 1.3244556921555857 -0.93334627230497447
A 2.7568920346786379 1.7376895133297063 -0.58134655770236765
A 1.8212666578069387 1.8663818330059911 0.91299614008479946
A 2.4270812509236479 1.0699974639700187 0.38672010563197518
A 3.3787799326523671 0.80719631931310831 0.095286613957137903
A -4.1584138136113218 1.9604196458851244 -0.51601026250804993
A 3.6689297868073636 1.8587095961611979 -0.048569798896054256
A 3.9476154272494557 -0.43096176384413126 0.76061493426351978
A -3.9351128304205676 2.9897566138602647 -0.25057704575574102
A -3.0526349040968088 3.708915934275697 0.099767966286346307
A -3.9427139568513341 3.645874078247878 0.69231510273833652
A -2.6356302969102496 2.8650971203224551 0.49017101774618427
A -2.9280012222513343 2.3061673709123816 -0.42272822076497629
A -0.75046700672388267 3.5109256588303772 -0.24764588502502768
A -2.0290343807211633 3.9008412113831752 0.08797742719924348
A -1.4166262398431573 2.1388174480246009 1.0914259546629825
A -0.1697760137347096 2.1614564076455602 0.7193623929014753
A 0.61507940756199431 3.3313476267767657 -0.17348538359164209
A -0.13763258065631179 3.7859285921897907 0.73473346208299173
A 1.0010418735084818 2.6437108018562077 0.5992107532058174
A 1.8825411308817455 2.9623385751818514 -0.38511104978450383
A 2.6881282516582177 3.7378147401535577 0.26072902640743784
A 1.5195825676113086 3.9098124889453323 0.27006937175023171
A 2.4603590395638344 2.6561695492019775 0.5128103590705656
A 3.3259020547021474 2.8783772061525927 -0.032428921513886488
A -4.1753845239006147 3.9966862992168717 -0.26502863405831056
A 2.5851968524694571 4.641359542094297 0.84957321097438165
A 4.4711162530287654 2.6562826068934537 0.10295578852817901
A -3.90552810115704 4.514134520192143 1.4221088545788836
A -3.4750790459281675 -3.8292888673580268 1.7436331608351516
A 4.4906934681630526 -3.7989443928344331 3.1001057436844399
A -2.9756450232613707 4.6089235305040095 2.3371806095100025
A -2.1897704072680386 4.4642567530117967 1.0558140828820695
A -1.4948349015385654 -3.2477058100469378 2.2848370728857743
A -2.8331309718224778 -3.4841368692133501 2.6876358770057078
A -1.348909164541785 4.4051403046191133 2.8993277547447316
A -0.029250400960252779 -4.57880440259932 1.3529838481788563
A 0.85247789304955945 -4.1651411227320327 1.7646294651596117
A -0.51907672556201334 -4.0694752753777275 3.3974116059678505
A 0.040091289375530879 4.6159228727000334 2.5589142131777196
A 1.9981626418575913 -4.6250492623359989 2.0907053533010731
A 2.6815153196514161 -3.3024478783184801 2.2346810775766928
A 1.884594132860258 -3.9198603295359695 2.9353691676643159
A 2.9994000103266578 -4.3136976732580381 2.7877946724290523
A 2.8309204043182152 -3.6410041161690905 1.0204646892132299
A -4.6278303367553324 -3.6417044364631481 1.7841643088692773
A 4.3062405782126767 -3.0274673923071709 3.7147478957759832
A 4.0950900130456898 4.3546025680020524 2.3305747893952939
A -3.6249823283672393 -2.7518557357469113 1.7604832012047136
A -2.8397104175090799 -1.6624416723022337 1.7397245458771176
A -4.2286813367562974 -1.844063464349313 2.6473118792657293
A -3.1224538909371242 -2.5179623535137798 2.9612840723963623
A -2.601368260623468 -2.750013339422948 1.7976674145315739
A -0.85624048889450044 -1.4994594966338806 2.1375057542738891
A -1.5817785950269085 -2.2493140825425733 2.5640310936830231
A -2.1212600768718928 -2.8646681412534702 3.1689550640109667
A -0.20701088653532326 -3.3569300141341785 1.4864888639270317
A 0.62473448060552195 -2.6498578151333119 1.8137139325988221
A 0.0032767909579335735 -2.0189313180535193 2.838554270033915
A 0.48827090005156421 -4.0293475857139942 3.2789049447407432
A 1.5175241568736475 -3.2390801896628254 1.8575911406419994
A 1.5535863846171194 -2.1142598206582952 1.729893489012196
A 1.0305210276225014 -2.0913833116273421 2.7313304274066579
A 2.0580086631471501 -2.5545605688492872 2.541383101268532
A 3.1589940574656925 -3.3562711006693635 3.1711431190836219
A 4.0673926634762649 -1.6955774508448613 2.4816190020487587
A 3.0749134167556971 -2.2700707273758067 3.2612056012196242
A 4.4027156865348402 -2.29305892385793 1.7051800202756517
A -3.4014742223313652 -0.76473423679349972 1.9871759269758702
A -3.4033268537351278 0.053391005199151964 2.6859179274208258
A -4.5683294458478034 -0.50746301721832465 2.6114073291826689
A -3.2043996165518704 -1.1284049043731537 2.977596704264541
A -1.7729043001544773 -1.0839489740349155 2.2008224731500743
A -1.2730420856515643 -0.27966276240549909 2.5796140647588741
A -2.5128279021042426 -0.44943153698981275 2.6506201956975968
A -0.60107512660633911 -0.85138827233865222 3.1687205433242802
A 0.48586783598951649 -1.6940837876053791 1.452543375167868
A 0.74825330410238344 -0.1871856244484579 1.7993321788066186
A 0.3177102238516113 -0.70046413920752948 2.7271312735153983
A 1.7457453924744988 -0.94933225951388356 2.218042696457307
A 1.9408027580612184 -0.17852763514014036 1.3901178691963501
A 3.1307525467717827 -0.15676162477479363 1.8932885853743588
A 2.0865089485315038 0.41640941045211788 2.3701469607688912
A 3.0325645404082415 -1.3339473079236601 2.8747255583185645
A 2.8657518873135577 -0.71227261221461835 0.8688110738049607
A -4.1347219314141004 0.57349307633346713 2.2292008052724062
A 3.39770554638157 0.029975108203029933 3.0633739864851619
A 4.1891721333114171 0.3374195237347592 2.0683264684926539
A -3.9734386305319656 1.0253918177897638 1.0275006390823112
A -2.8606433571806829 1.9510897495478219 1.1167086945534643
A -2.6466091403572176 2.0042795369142032 2.2629808972183065
A -2.9902542138840467 0.96788820724625091 2.9916913285304649
A -2.1611921826112477 0.89357187902561896 2.1661489341838718
A -1.1051766158353098 2.0255968521375332 2.210372219174134
A -2.0706982639566984 1.6279082897020498 2.9949307581481976
A -1.0479495926798825 0.89995530319810446 2.3050387486947774
A -0.47099091283382344 1.4280276000844154 1.5310733351123029
A 0.74713822947801845 1.8486747513456867 1.2551732865492151
A 0.38757700719836607 1.7702169523294193 2.3221237646538833
A 0.69166288059444492 0.78752616598658431 2.2243264087433054
A 1.4197160911569151 0.6742571849064275 0.97825991667829792
A 2.8377134781252056 2.7806205443706569 1.5591828297907522
A 1.4296236104054438 1.9013638428558175 2.0987623509029834
A 2.6052374376903096 0.76807274896300559 1.3824751875395627
A 3.0370111835250739 0.73499226817148833 2.3397075009542521
A 3.8744580057510793 2.2971073257096051 1.141108088280512
A 3.5442370251322561 1.8177576667575377 2.0174636261600187
A 4.5782487173232775 1.2900973264704085 1.7269638679369868
A -4.2543446082951464 2.0174162260580455 0.62657694768957717
A -3.9671615954133537 3.5462542141781466 1.9113279975156241
A -4.4022494964320531 4.2404946050460381 3.4261642451492769
A -3.4345968374948352 2.5324386230663287 1.7508136878519118
A -2.0155608418524187 2.9439780126719142 1.4472826102726082
A -0.95154466414838201 4.1187647287989728 1.7864129099595196
A -1.9543791912751292 3.9948562542193362 2.1210897342584003
A -1.6141070575423668 2.897583711197671 2.5654770888226053
A -0.95367140723262833 2.8899802658663254 1.646803302118681
A 1.1117526073310962 3.9691815288856271 1.6885468100013095
A 0.053944193030375301 3.7962389056271899 1.9020981141366426
A 0.74160152002717317 2.9627122312757432 2.1950084966020671
A 1.787600571004492 2.7908607552058418 1.4399282974342513
A 2.5207825202203216 3.7287142157371851 1.6641651674054148
A 1.6886381345986321 3.3650113555937931 2.3740613736168479
A 2.5170524320439838 1.6923353696024792 2.3781618581045776
A 3.8075831946707792 3.2326870390389955 1.9305985557395104
A 4.5060286925900082 3.9606002365739701 1.4006752660712605
A 3.1618421020859859 3.8962501313621836 2.450629933777146
A -3.6900558973412672 2.9073077579574362 2.7275475262718674
A -3.9692451743167307 -3.5968227456203108 3.8516913485765021
A -3.4524978636601591 -4.4586955987788084 3.3469334430161681
A -3.7312568815882607 -2.7600017736866342 4.4515900970637095
A -3.2748964281219797 -3.7175771362904007 -4.5913448450502177
A -2.4079808310953825 4.4613345628263588 3.2296106525614858
A -1.547603063525185 -3.6532961587790616 3.4666401441006518
A -2.2217108422673819 -3.9703948916862273 4.516237108572124
A -1.6661988312724429 4.6151163879942025 3.9283742039169511
A -0.38970640246256627 4.2301478719578123 3.4517663812669159
A -0.32752547176800401 -3.2592776151944971 4.0224878392986891
A -0.2930753126152647 -3.6710697989726571 -4.2208530510621793
A -0.22150950462953417 4.5968949265307373 -4.5993596642243304
A 2.1904113504413023 4.1801052985089653 2.9357144654859892
A 2.8761086699841081 -4.637923363779354 3.9976817523473089
A 1.4077008279468044 -4.4467806371731049 4.11408112630241
A 2.3179825024655591 4.5801042318986749 -4.4008959668889949
A 3.8108618657514368 -4.6123158844466801 3.5081423994763781
A -4.5974152586057784 -3.3090413999132564 -4.5840933541319613
A 3.1180594094777274 -4.5046456486703006 -3.8156303899739212
A 3.7101996740576944 4.5307464325203481 4.6535890299280265
A 4.4856573342449444 -2.8696401221618215 2.6111416542138768
A -3.4310955701058625 -1.9646171923272013 3.7593646571315209
A -4.2878006483197169 -1.9178232502598234 -4.631092907083703
A -2.3048121731660833 -2.5673477905763766 4.4867001805890387
A -2.9916282512315826 -3.1706742027794328 3.7420853853316336
A -0.46196083976542196 -2.5501713643312374 2.0480797249314264
A -1.6186499610301681 -2.0077890769941211 -4.3243518115140764
A -1.3227821340580617 -2.1420635557774808 3.9898570353996603
A -0.96986470442034267 -2.8720870746855791 3.1884373005817754
A 0.7368270363412579 -2.3985570457022778 3.8588506068102038
A -0.29840718165505375 -2.1706938056667378 4.0253218316232608
A 1.6262227433679044 -2.8406966019304019 4.6507698189686897
A 1.2129605522759717 -3.4530739049291199 3.6731752357429355
A 2.0537989256728642 -1.5476297869067188 2.9773877467638945
A 2.1996076997110574 -2.5956030607648075 3.7296022476315862
A 2.6238910548521606 -3.6573740427375911 -4.4669959220156406
A 3.0440512740960388 -2.7439112782337833 4.3170875336476966
A 4.0673597909410235 -0.92724411108769156 3.2878228313510176
A 4.045970053379544 -2.3026325013001778 4.5086766648173038
A 3.6997365899039907 -3.0468808110397316 -4.1276320431305322
A -4.1037690814934971 -0.78585658490195265 3.8880010944477346
A -3.7314979960007029 0.56884630164651051 4.1904438456307851
A 4.5904787887399952 0.38666617057832259 4.6529578498053503
A -3.1082569266660283 -0.1465837323326771 -4.5815725957053353
A -1.7490952642434683 -0.85927683482956441 3.3161624575197459
A -0.6321920401905734 0.20632292295991694 3.3136289621524035
A -2.4252911758406652 0.70624722847631982 4.3686723532535616
A -1.3812042412866303 -1.1619588886121173 4.2363059447689215
A 0.60728221657789727 -0.33377745666239333 3.893351333960489
A 1.2851561564486853 -0.16885680342945444 2.7265569192733921
A -0.41330668885402866 0.09750119546805204 4.4538201339653947
A 1.2071763231651549 -0.63281931944128411 -4.5325621888396883
A 0.58727139859968636 -1.3864502078395697 3.55906863286254
A 2.3867170624028247 -0.43515113230952973 2.8327790324730513
A 1.437916243163035 0.46421101643459289 3.6090608114497487
A 2.5003720316739981 -0.84064671083689424 -4.4985665447333796
A 3.1122333823055617 -0.61197807714422647 3.8422148042236182
A 4.5409460496872418 -0.022144072374017734 3.5690830932226993
A 2.5672797877819598 0.073758769510067199 4.3425324372135599
A 4.2646145991559727 -1.1446243232140509 4.5203597114879841
A -4.080025389207413 0.84190638260803485 3.215474149304157
A -4.405605066338155 1.4783146179782367 3.9970889541816481
A -4.5088864001931492 2.4031172688618168 4.6222758483014843
A -3.3071139838258596 1.610830148334353 3.8421103079085501
A -1.3408995902710739 1.097190639916144 3.5185373875003689
A -1.7328438996565767 2.510844010601617 3.5791235075300802
A -2.8157801413961465 2.4900142472951838 3.2389230104970888
A -1.7168340676990326 -0.09319461480769696 4.0386571197137613
A -0.46304088368425833 1.0344257797166672 4.0672062451858757
A -0.3114710238227178 1.2139699937699739 2.981899004573715
A -0.37440938353052361 2.190544290250247 4.1377266546886853
A 1.5333871013084548 1.3559046341031697 4.1184984134562006
A 1.1748802370254907 1.3952456380961633 2.9233383705152387
A 3.0180094706174199 1.9881681284013739 3.4460051117408894
A 1.4782970597356977 1.9148860113270494 -4.3050169292244602
A 2.9412459484352573 1.5914012180331782 4.4984462216042322
A 3.5579058523626057 0.78730940364821766 3.8216006896741512
A 4.5931821430387512 2.2713559946002366 2.595538157730791
A 4.0481374837878601 2.0391667568837861 3.6232094804167065
A -4.5933445431666291 1.23396718528623 -3.8587786351830013
A -4.3466843915329809 2.9021032114897847 3.682728721669835
A -3.4261357098844916 3.7726330025180239 3.2437946905005801
A -3.6372313752358836 4.2156584069628753 4.2621179133742455
A -3.2080751922692081 3.4694331126031903 -4.3254180972615766
A -1.814366989999022 3.6198812155772875 3.3644294821594403
A -0.81230826482884155 3.1771569729488163 3.6511306371511605
A -2.6075730763356413 4.1571887352702204 4.4550325219331697
A -1.2004233391384902 2.6909166141181395 4.6287949692756651
A 0.2329458911819467 2.2245045202325362 3.2595687945145748