ITEM: TIMESTEP
311
ITEM: NUMBER OF ATOMS
500
ITEM: BOX BOUNDS pp pp pp
-4.65403283105303 4.65403283105303
-4.65403283105303 4.65403283105303
-4.65403283105303 4.65403283105303
ITEM: ATOMS type x y z
A -2.612179955999903 -3.365807219126435 -3.6018180348755169
A -0.86054580311018292 -1.4885948441283241 -2.3922172279791392
A -2.3547773453898042 -1.7908090283804419 -2.0944966876038209
A -1.4277603324751367 -3.4352939611472966 -1.3203745277318728
A -0.78715659837805996 -2.9729531709771764 -2.7299658097954134
A 0.25535859771718461 -2.9547245362320398 -3.2428874430511252
A -0.29146459713884493 -1.7763418188045155 -1.607418569669683
A 0.58078502376450636 -3.051770184986879 -1.1983140260147973
A 1.3571587434011863 -3.064751961303922 -2.1401625186902211
A 2.2786818917644682 -2.5978437736996156 -2.4844058027785465
A 1.0922242086292293 -2.0926498961116589 -2.3032200465134882
A 2.6507086356186274 -3.170430591700208 -1.6608350369910325
A 3.3118229875327692 -3.7287424302600436 -2.4485516284578863
A 3.9354901839756455 -2.0021772396223194 -3.5871755232005782
A 3.2651909157569903 -2.1276166680830055 -2.2356785277955691
A -4.5630785921794157 -3.5730920923018061 -2.8736604886450996
A -3.7990805855522964 -2.6533519149756697 -3.1766262969959276
A 4.4301575889068232 -2.4401044412118029 -2.5285512363728748
A -3.9861357868011753 -3.4897602301405186 -1.9066787238090082
A -2.9867318284951194 -3.6672876968107415 -1.5199993431167447
A -2.1728259431869597 -1.242861577002059 -3.1208691061685045
A -0.57040985474961736 0.084969058019784702 -2.6294927877709484
A -1.900342966280705 -0.54789115207536854 -2.3962926260569595
A -1.7241513756263638 -1.293718689558967 -1.4568736621858718
A 0.036489294556348646 -1.0221541300148889 -2.5981148576428463
A 0.57257721720885468 -0.073220072897755908 -2.6377515280044985
A -0.44750184042484414 -0.54521656446591305 -1.6496162238799823
A 1.017517402986803 -1.1115836738817702 -1.8035254654491715
A 1.0948295914917527 -1.0199553713518492 -2.8610091600163616
A 2.098617884434649 -0.53885360691923012 -2.7289518084783801
A 1.4520943833264981 -0.050517535613450251 -2.0727337192778013
A 2.0104536742033914 -1.5302422591774207 -2.8506317060333295
A 2.9432796969100137 -1.7879801453615816 -3.244746247555002
A 4.6069278933869873 0.35527927696108857 -3.1835066954767841
A 3.4543413573851742 -0.9787561656854904 -1.8951989237243136
A 2.9342223597705068 -1.9939592588092874 -1.2482674606341455
A -4.3120379519667491 -1.6101595062553886 -3.2516954074290516
A -2.6176575160483946 0.01060536752189755 -2.864686096379931
A -4.0029507618498128 -0.51436022972108819 -2.6428881831329512
A -3.8800018219122325 -0.99733430143122104 -1.5525222469916395
A -2.5678134589633634 0.94074172005726231 -2.4989605173677396
A -2.8795913500930221 2.1165226895574305 -2.2320817294300106
A -2.7471189519740369 1.8170658316966006 -1.0703781517167601
A -1.3401415547902726 0.55453038885336059 -2.1712932131580236
A -0.55526879633699955 0.96174583409108061 -3.1183382452236907
A 0.63748403212732174 1.042268664083364 -2.9451021109021438
A -0.72026942405748406 1.4012416941109234 -1.7338062942718482
A 0.90085931980619238 0.11022227589976318 -1.0951971200019719
A 1.4603342621789017 0.42665925932431747 -3.134480564749631
A 1.8706064460559437 1.3156432734412773 -3.7213677881965479
A 1.0294831869550458 0.97825678144637807 -1.8091171425697847
A 2.4371931088655265 0.34432273061941265 -2.0099525520924981
A 3.5158824504306541 0.034421776742483777 -2.2754194011499767
A 3.7450590130717312 0.87129804030653746 -2.9826890180208836
A 3.0937113763568731 1.2682969565969722 -2.0918521250971667
A 4.6355818151733077 0.78213462098286124 -2.1794739893920654
A -3.7227253871487411 1.4497836658062453 -1.9734753738511368
A -3.616071870207799 0.31788835715601066 -3.1155616356371056
A -3.595835731267603 2.3789718025548581 -1.5199254253568713
A -3.006862277850086 -0.52286349702937018 -2.1039182128270735
A -2.1974988347043118 2.281355745729202 -2.9784180863796563
A -1.4132612578477637 3.5098400278572228 -2.3731472696765379
A -2.3949912576919714 3.0055575719484788 -2.160718483487257
A -1.5489460667047159 2.3344844631619166 -2.0140869141368878
A -1.5211653593875325 1.3966267412407019 -2.7115132921156002
A 0.4808883016742716 2.76215501719106 -2.85104083205229
A -0.40598610529760371 2.5140357278171277 -2.0266957627268845
A 0.52954113928413815 2.9759903583714187 -1.8674088271418832
A 1.9866264549926349 2.5378021252487937 -3.3660235096998008
A 1.6152223639493979 2.923626235220218 -2.4406850410132521
A 0.3824470253620289 1.8604452314177766 -2.2427344644138283
A 1.361117683895436 1.7590846439486636 -2.9710984069639674
A 2.5596722686049884 2.4728401597115965 -2.2151349133361902
A 3.8943300958308291 2.1801200902220845 -3.8012738288007411
A 3.2373213156303207 2.927745430118911 -3.4281373160509081
A 3.5222097674468666 2.0912241786960903 -2.5423618265718289
A -4.2001172479681026 2.3706474346817767 -3.7864681031819147
A -3.2223395233589542 4.1045349758824532 -2.9846934372287244
A -4.6338054538609033 4.2591000769053675 -1.4670388829204519
A -3.299109987874524 3.4584018283384137 -1.7004919461386983
A -1.7178155442469876 3.2031944080723984 -3.5827266929918835
A -1.5277617091511835 -3.9534934585450907 -3.3860166270368004
A -1.4564531371167533 -4.4453074463677549 -2.3411726967570692
A -1.9237393027679714 3.8041642296000302 -1.4711818825911849
A -0.29180715021679271 -4.0169774254615875 -3.0759338009940365
A 0.13513618954004086 4.0225042599197831 -3.5443621184388219
A -0.30211697453096742 -4.3689932708268895 -1.7609805504084166
A 0.15321932021872434 4.453869819763173 -2.5647862555857808
A 1.0284399118157059 3.7749940581813592 -3.0246903415988524
A 2.1222562694971931 -4.5523222061445932 -3.2584578765561076
A 1.7341247524978864 4.3151924889515021 -2.2975413033057412
A 2.482534408622953 3.5668019699853799 -2.5661958301576884
A 3.650794513054421 3.4083902721246462 -2.5283234285068441
A 3.4173727669773459 -4.4457022501227446 -4.3748464710839983
A 3.0752322880502772 4.3318425717549625 -3.1893235706941918
A -4.6120647801451753 -4.5534069192602624 -2.6536868758197736
A 3.2725926240395862 2.2411068067004516 -1.3682602567331978
A -2.5596650172134279 -4.1102931829691718 -2.3665194621984527
A -3.0377875499348619 -3.1994763037002736 -2.676468725417688
A -2.6750755949358691 4.1675607913571202 -2.0847072984924737
A -1.962832205195862 -3.1785196941277385 -2.3358276116687215
A -1.2649185039500934 -2.5165766129117144 -1.84585576940019
A -2.1810487696284424 -1.8589518615558769 -0.68193694750824929
A -2.1115713766046396 -2.7476561844973904 0.062008360715712953
A -0.20256902918282818 -2.4617294322628465 -0.7267314657426146
A 0.88360066791577263 -2.0329513871026008 -1.0542834942295956
A -0.72077135977873885 -2.5351231092356867 0.26122172660551568
A 0.3818880169880941 -3.1826137823257032 -0.20875013231896239
A 1.8395524930087328 -3.9247178110660452 -1.6054894243023821
A 2.2391896912356799 -2.2073256899435667 -0.41318429004573987
A 1.2278301792887123 -2.5299046267896266 -0.20679489753866212
A 2.6206254479279347 -3.1335186248988007 -0.5507683452182498
A 4.2902266438264895 -3.8936844883182284 -2.0013924489843835
A 4.0079491216900545 -1.8845524556762308 -1.5355417066230672
A 3.7029675374769648 -1.5168482173242823 0.15729904113831764
A -4.3865791622512278 -3.7097506921673258 0.12045406408513906
A -4.5899998737666721 -3.0269770678414423 -1.1829169002030431
A -3.0004973928236778 -2.1627873485477114 -0.064610248154150382
A 4.297853727895566 -2.306786292247105 -0.50343760163036622
A -3.3249480989326052 -3.2851754936260806 0.5006304955420301
A -3.1408488825551899 -1.6428516025891082 -1.3537743514508453
A -0.77978757518074615 1.1379112729886527 -0.58105518056626682
A -2.708404230910451 0.006199241755104729 -0.14726741082492364
A -1.4872395898795343 -0.82580274120582631 -0.45907143393554695
A -0.63358335942349753 -1.3827701002129014 -0.70639079793262149
A 0.91341564434230704 -0.13291508305858551 0.017949611849401345
A -0.14903485944262942 -0.30103533448458936 -0.704286760113503
A 0.23387887895769538 -1.9779048082471391 0.48776611386444868
A 1.699573008609355 -1.3759075404835646 -0.87075350590264411
A 2.262681445169723 -0.64428146525330265 -1.5720684588881717
A 0.4994498408515094 -1.1244431736978702 -0.59981499394251936
A 1.5585408558038345 -1.5041286117963637 0.12310911288176908
A 2.6702609779396784 -1.1457224898573208 -0.6633443956455628
A 4.3297466332242367 -0.44508178410300664 -1.5903614262361478
A 3.5074830322327393 -0.49852651005212661 -0.89457699971595916
A -4.5192257174147104 -1.6775105374164412 0.29170485469611812
A -4.2422794624297451 -2.0542404671469048 -1.272157948763859
A -3.4071328696248191 -0.28350382782579797 -0.92777755810117957
A -4.4217542030800274 -0.065528748501805761 -0.73083856333967623
A -3.6116678015377968 -1.4346491313065419 -0.41965848428346025
A -2.3340073865901734 0.06637122133822182 -1.3680695614414502
A -1.8256231682689623 1.1261518052323305 -1.3031516540096166
A -2.3712778685791234 1.0603296281400647 -0.39973202550739306
A -1.5305511680747084 0.3936533598413674 -0.16842866602703482
A -0.079813925657394605 0.37822900280446869 -1.8025467414186198
A 0.20944193391324886 1.4273971568282164 -1.2454484649792732
A 0.066097325268805171 1.7735491248778632 -0.20076857568111395
A 0.38671443784958159 0.84469088044435092 0.23536322006362903
A 1.8417934321863667 0.7347121585759715 -1.1784006045032596
A 1.3489793619662711 1.6322770521690235 -0.82986855805051407
A 1.0965732477408887 1.7348456640157444 0.2458827961750224
A 2.8898234870874853 0.83099557556809001 -0.98311724805900302
A 3.9108503959773206 0.51851323740649025 -1.2518011599196932
A 3.4907626620598413 1.5094889142999037 -0.47963214547562888
A 1.734837089730074 0.4980325757947624 0.029230568652226792
A -4.5428514185045836 0.27792033968408891 0.65586131532799441
A -4.2959718787856893 1.012759584045315 -1.1965207315789093
A -3.7062139964761771 1.7348702758717491 -0.44332353106783029
A -4.5207405896978674 1.0245051010961297 -0.15513972541321069
A -3.5511194222889841 0.60053861062185043 -0.3075607444970927
A -0.99112798749964093 2.5207619254257905 -0.023588183211422909
A -1.0739291035565395 3.0765491838810499 -1.4846170934782732
A -2.2576754378033961 4.4449882814509474 -0.046545201159969463
A -1.6974730874043342 1.8610137977754799 -0.59659124738045533
A -0.6418065407561504 2.1428452554971225 -0.92906917770107633
A -0.39354690702815109 3.9462028715340414 -1.4232712887320318
A -0.067964017585993172 3.1418974959969019 -0.72917160619084298
A 1.2803447595939992 2.5735445659007405 -0.45331779868850358
A 1.279653800241509 2.0794549738774162 -1.7813157835236078
A 2.0368735966416631 2.8867657241271196 -1.3123732860461836
A 0.79341684768361753 3.6449739922444264 -0.61276142876381745
A 2.1416183765196455 1.6580786882082186 1.0132087404933714
A 2.7786699458014286 2.8249955053745013 -0.6230832839731596
A 4.0054581297725527 3.4839106142656471 -1.0763222791573648
A 2.5517717392183226 4.2538999630370622 0.1268072902116667
A 3.7880752923017988 2.5772529012397527 -0.56511620389487527
A 4.4917023548495072 2.9160486520365723 -1.8338136842019017
A -2.7276043743892044 3.6778722830380497 -0.70378227008092031
A -3.4983702273764106 2.7903899564512016 -0.32586866369909034
A -2.4831810238140246 2.3479150072485448 -0.10461422407423158
A -3.1548385264878358 4.6525688738270361 -1.2998264902104704
A -2.1774426554240702 -2.6990221700809576 -1.2473917522568849
A -1.6339497063972062 -3.8426966206572262 -0.30500033866292237
A -1.1492414135764784 4.6395226029416374 0.2380851222877928
A -1.0783501067990211 -4.4000105140908117 -0.95440643366365308
A 0.46214380885235595 -3.5689824574714093 -2.2837407898394519
A -0.7153806871494427 -3.4910663312590913 -0.5586909352284638
A -0.286116932797854 3.9298064321531303 -0.033685291501894525
A 1.5562891427770984 4.5078104466045321 -1.0608129607260242
A 3.3476155008084496 -3.9376528580502299 -1.332595366071726
A 1.4384422987598722 4.2690030639220184 0.20552674018673511
A 2.049528009855845 3.5539382546879112 -0.41884805360040767
A 3.7015774028144794 4.2258755853968761 -1.7868539679084434
A 3.1477220094778584 4.2334139037013436 -0.75019320703228154
A 3.4071943041783559 -4.1149795988071993 -0.12094766042323796
A -3.9730474334169452 3.5037343011273321 0.63948405945394182
A -3.9086995481152229 -3.9807488473152297 -0.81000871709215017
A -3.5499644699525286 -1.7791927867765098 -2.4174475670594817
A -3.5252190292053953 4.2687278059841836 1.5868186449461998
A -3.1065382214179564 -4.2820022258878412 -0.24925461845819891
A -1.4868395384974811 -3.1956314372451047 0.75285804765945452
A -1.3441735993418722 -2.1826296299492602 1.0571380407179405
A -2.0635513302881492 -2.3991704849881685 1.8834237048896905
A -2.296712839551855 -3.3182047873470313 1.5170818500000103
A -0.81531673544422456 -3.0086510320231787 1.4871507744716468
A 0.65345985821450425 -2.5847070086411521 1.752567814858228
A -1.4032033461604139 -1.509449750945737 2.2912593444757658
A -0.14976010922915717 -3.2696693392314065 2.2434046698094354
A 1.251459359616244 -4.0647149804000797 -0.3873510902001765
A 2.0759366664005094 -2.9791840847346807 0.32788021794948236
A 1.759279930494265 -2.0714476187765194 1.7056198595144123
A 2.5163635512601474 -3.2454270132138605 3.4155652841385971
A 2.9258664977152908 -3.4918821338535366 0.64977584055035464
A 3.1810341242489066 -2.5235693617711417 0.19630112741430397
A 3.3750575498681434 -1.8933055770498102 1.2407746595526838
A 3.7081823204276074 -2.9302322980391589 1.5973735138584562
A -4.3020093822320495 -3.5783859957353443 1.2200209537504596
A -4.048697689378324 -2.6263804569283615 0.79484824354514394
A -3.6731675617484587 -1.6681439171308534 0.89817346665554099
A -3.5389979985600171 -2.8858187684273235 1.7391833970097725
A -2.4413199122341593 -1.4419287012605944 0.53798470060579906
A -1.2035679035003641 1.454927359123912 1.4036100444805351
A -2.1953411366612081 -0.33878130183660876 1.4391147692461757
A -1.5545322831703554 -1.2216536852823692 1.2672713425151179
A -0.55229660003132974 -1.3020121143420722 0.32084833323712125
A 0.36742450126880072 -0.85925316838032173 0.69937176171729576
A -1.1998536156245898 -0.51938847279612155 0.45920386022844334
A 0.58775081424702302 -1.4904430159219397 1.6054258744371703
A 1.2264741514083932 -2.4242526425110302 0.93461486999058963
A 2.009889044129074 -0.36393332963035741 0.57024599669202602
A 0.38649616098587036 -0.50514851765176838 1.9650617565839343
A 2.0515020466148455 -1.2000254549678615 1.2875433592925061
A 2.9254402295615654 0.12484460353692232 -0.14911394664030198
A 4.0487467662847791 -0.31711152149069516 0.23503442509267225
A 2.7930362798288884 0.17760824078210094 1.0350666239396542
A 4.0735344874158042 -0.84617555075495499 2.1963194999428572
A 4.1152748263485153 -2.3341955470690161 0.68943895910819053
A -3.3620321350945188 -0.59377488463238393 0.52150082719808066
A -3.249946982122716 -0.87492146789333447 1.6619668772078029
A -4.1986151424265925 -0.54782026133462225 1.284038546393804
A -2.5045463321532742 0.70022821209997888 0.57378405593594195
A -0.7278411892377401 2.3087364930008003 1.1144206481668952
A -2.4002629059504592 0.62102583575317427 1.7456672179974819
A -1.3554439140115186 0.69875654466678039 2.2695686031924294
A -0.61354491124226262 0.42137799335444276 0.30036529753724062
A 0.12405344019529412 1.5831298320320231 0.93322511450542234
A -0.68175322994830623 1.4550848543195305 2.4071555111043135
A 1.0643767425147184 0.32768531387163768 2.353945972653078
A 0.60871477560205889 0.18156743854006666 1.1238501768554492
A 2.4728083889446668 0.38768143539429378 2.7183857143543415
A 1.1677817117595284 1.3984549936465729 1.3145890232389079
A 1.798582077072983 1.5366419007012244 2.2014803894732635
A 2.7273345587272178 1.0143400663030906 0.48890878955377143
A 4.1161544493051219 1.6925837025856545 0.52581120046982399
A 3.1371835628731661 1.515855808214986 1.453225264116436
A 3.6959827166891386 0.79977961134287678 0.84477623648115741
A -4.141125642934564 1.2735649024217848 0.83123455908237376
A -3.2819181110929572 2.3295300888287471 0.85120407807962395
A 4.1119652232863828 2.1156921352800047 1.5191796107398161
A -3.2460158223612092 1.306556675138641 1.4642043817353769
A -1.708631896734004 2.6302276110154166 0.69464954554071812
A -0.97474626243128426 3.3632496535015104 1.0588683063375897
A -1.9624217832487525 2.9482833461745144 1.7488194508532111
A -1.1814212965570945 4.2416538283369896 1.8338976165564027
A 0.075809624901579969 1.9205336776134441 3.0565808228691611
A 2.3069698192591281 2.9930150408284444 0.83495226267929368
A 0.022108762874568682 3.2050520824209654 1.3958649264081211
A 0.68946151547714463 1.4624661683682496 2.2801436865500562
A 0.96604987744095905 2.347983718883774 1.6191386788216413
A 1.1789876659550118 3.4112464532477431 1.4727930823005715
A 2.6368323459185783 3.4418620772662059 2.1426836567248646
A 3.922352150562018 2.8276483485596642 0.46468465321180069
A 3.2456543967980376 3.52963731889204 1.2672775867508388
A 4.3319163380838139 3.6865343680280693 0.99968228873100595
A 3.3071057588727544 4.0565608201362222 3.2153932083599286
A 4.5698719991761427 2.7308631172565727 2.3570448032073608
A 4.5654328408672598 3.5504170975366245 -0.064421386363383473
A -2.9631467970876448 3.3134685879993029 1.5868274435998511
A 4.3963289156597138 3.8809126214455527 2.1501611594032979
A -3.9951406943447365 3.2184181712519493 1.8733334512438524
A -2.3548379236074495 -3.9812328453917463 0.54809111033585711
A -1.6613218744119849 -4.3209284410667799 1.2424563099082262
A -2.564806391673093 4.6346762429032919 1.7557798517143537
A -1.9631490612256179 4.0398162873676728 1.1220376951856479
A -0.4698379818261435 4.3729427391820943 0.98441908947877776
A 0.2187285700949847 -4.3209788820099959 0.36034207325188689
A -0.51456369929995827 -4.3148030076650103 2.2511637518742784
A 0.2186405960333746 -4.0700295461522442 1.6087137634134563
A 1.230542930647595 -4.4314350736824712 1.2288712198528158
A 3.2270187131588779 -4.5270809837655843 0.94526886026077217
A 1.6950781422245798 -3.2175096940728078 1.4073138408450998
A 2.0288784896310013 3.9827563903830479 0.98082472228718465
A 3.0863454103837866 2.1362061023892034 0.66566336378365831
A 3.0858305216606507 -3.7996665340624567 1.8477536173801699
A 4.0457754840501492 -3.8748035782507637 0.90700233175516787
A -4.5358751326809887 4.5774070312780504 1.238045954200242
A -4.0241732388169345 4.3150104852122233 -0.39491742402084751
A -3.3708419193507524 -4.014492449575239 1.8725418152536595
A -4.4623361879492958 -4.0099482514417009 2.1932293488927606
A -3.0800570332696839 4.540772028202281 2.715033496197822
A -2.8535214088460443 -2.7173183549080582 2.4622535355137409
A -2.1586722647836734 -1.9706584266022655 3.0833998189450997
A -3.3457837244659601 -2.2768743013324695 4.1937250770121013
A -1.8270116891926838 -3.0896914616933011 2.8133738426790771
A -1.2558386075643948 -3.8574007546137183 3.2470913915493775
A -0.048629778303353542 -2.1445624012161404 2.5600390609853578
A -0.54170899848531273 -3.0441112468310942 3.3152244497923324
A 0.4980810113087305 -2.8369757482649152 3.2106513406855841
A 1.9254302111567489 -2.9713322363571621 2.4151497546718441
A 1.6872090448329566 -1.292120407235104 2.3473115443359722
A 1.2623301245509591 -2.0260037122143899 3.0289844211916113
A 1.6047600805131763 -2.771253744010016 3.7740148400257825
A 3.543105604741168 -3.3931434022077789 3.7359447139598583
A 3.8579484361767946 -2.0425709903423814 2.1073426900241472
A 3.0557341346585001 -2.8435998096692687 2.3539071272618277
A 4.4614639585650115 -2.7998572857641966 3.9366829429798025
A -4.6470796050992149 -3.622765664249834 3.3197814195538791
A -3.361096527309936 -1.9304248816429712 2.0530175588294353
A -4.2413669201542872 -3.0711609630720149 2.4617886621179732
A -3.7166572446663748 -3.1833852820745649 3.7594781921520144
A -2.6187009118935731 -1.2404100987806377 2.5498916732704289
A -1.3060515069489911 -0.46242470530406449 1.9814963383902766
A -2.7532191381519673 -0.32924924174141562 3.5505909155449027
A -1.8942171762525015 -1.0058743809188351 3.3137429918561434
A 0.078943804557461861 -1.6866867681169238 3.6278677350322348
A 0.40259010262402284 -0.11331684094871294 3.104434878078612
A -0.4351320152121933 -1.1322900117686201 2.3805890298246193
A -0.85608596470341636 -2.0289919282031343 3.1515255307010288
A 1.4263845587430981 -1.2253988011045331 3.6170441703839633
A 2.1051501427427799 -0.32017779636817001 1.8509208011481311
A 1.3546030534451381 -0.00087072928969611236 4.086578479725282
A 3.3127613962800364 -1.441513765313237 2.9005726822278732
A 2.7374490929208299 -1.6370210877045059 1.9932617675506259
A 4.1088174098501113 -0.049013116200829245 1.5681888756077031
A 3.4103674685853269 -0.3687702709011762 3.5748399671971662
A 3.9985376315293939 -1.7378962542592367 3.6637255075693984
A 4.5998282630898837 -1.6249672078101622 2.8307620320581699
A -3.3582331753458936 0.042812933302404113 2.4188374796104548
A -3.9436953199951299 0.34216833798640645 3.2446570335736884
A -2.6840234434476633 -1.2626158357204658 3.9041435415732311
A -1.8693329088121995 1.5676692585898633 2.3396120016599049
A -1.483435902569415 1.7273532750475724 3.3991587217920611
A -2.6526087622243946 1.7670236677614759 3.3883549346277522
A -2.0931747848047904 0.96034284361307876 3.8563035157703522
A -0.65547848344259252 -0.021149970721086781 2.7373612714397293
A -0.039914590001517834 0.86916577064145639 2.9419674026881819
A -0.56903872632168717 1.5895313308234227 3.9447315492042407
A -0.42727884522785414 -0.45761173823094187 3.8183075940637394
A 1.4864347397851534 -0.34383136816080556 3.0110456902059877
A 2.7697816333421104 1.4981691260813275 2.6236797861102588
A 1.1525724392270817 0.90202932166543637 3.3317335498450515
A 2.3408665285823163 0.16866059317491949 3.9185271133459221
A 3.2161770854350258 0.36583396648433142 1.9541105599838664
A 3.9584431499252242 1.7843396175585082 2.6132717165986272
A 3.3365095138820413 1.9094185990315307 3.5033271172397189
A -4.4034812087707991 -0.15197202040963426 2.2374975685908955
A 3.9229330581059565 0.037587091739833177 2.6985386233129351
A -3.5817494404547228 1.0472779304447499 2.3833505601978722
A 4.1223686143878453 1.2448407048905674 3.6204360543243457
A -2.6632655442722557 0.80015304264185239 2.7996261462831518
A -2.2192462192840789 2.6277258065891131 2.68511609762934
A -1.4204388143922013 3.3551185732874331 3.0351067465752597
A -1.8522735095414034 3.6811168441096616 4.071905272456747
A -1.926917738591879 2.5636712300746671 3.8081678453750039
A -0.27614473106395515 3.4156969299405007 2.8594583395171851
A 0.6342053740643222 3.2141690053198775 2.2983035219920467
A -0.69875090154348862 3.6152878878068697 3.8627964891658531
A 0.5105990971940767 2.8321614645861088 3.3704405189069315
A 1.5647437252548033 2.0072311454976361 3.6156614183362303
A 2.52100087023886 2.4623553687411586 2.8775324953799273
A 1.5532508876024964 4.258189187387976 2.2372148752796894
A 2.4633957483224709 2.3542265190310934 3.9803860692188651
A 2.968259429371733 2.4588653278193529 1.9173952601927668
A 4.3845941308157297 3.5416396886651142 3.1105443884160353
A 3.2182949088074375 3.153791626457517 3.7771729296149501
A 4.5744700782706245 2.2893629635287009 3.4882039998526864
A -4.1736352043987379 1.8935187881876356 1.9956941426520873
A -3.4190004057790775 3.5735848283357208 2.6525997923295219
A -3.271908885659335 2.393552153123863 2.2983162255782332
A -3.1968815494583458 2.6254484375461828 3.6512042631252823
A -2.146254429899543 4.3605053199711756 3.2715940485728265
A -1.738851065316517 -4.4687924778341337 2.4926457026181184
A -2.5659511321784865 -2.9763723627040326 3.5775391697551173
A -1.4485259139443221 4.6098775903523546 3.9824346681494451
A -0.97554284413647174 4.2606698406544137 3.0134973333123227
A 0.98553017232154916 -3.9722314920029653 2.2679356981732406
A -0.28470428106613133 -3.6432895033165371 4.261154547683879
A 0.4536783615207266 3.8812079021299679 3.7045113161561698
A 1.1615454429622496 4.5212151192749523 3.3023035107251095
A 2.8403594698147416 4.4539222884303484 2.1782553707406631
A 1.5237855382533683 -3.7617762618500432 3.224653005450588
A 2.3085206576391117 3.9679809202183898 3.122863503836991
A 4.1065320566354142 -4.5460289661975715 2.8442340517043783
A 3.9813197353765557 -3.3597952230473656 2.4638444824846775
A 2.7790610629327905 -4.0538867497104789 4.138389862076405
A 4.0981823929208163 3.6887969456698824 4.1156502691493468
A -4.3829854590027484 4.3659285587092027 3.5772899634161393
A -2.4897256581961846 -3.9452048866637259 3.1025279054115877
A -4.4820322513837381 -3.6531489616809836 4.3547125934989799
A -3.4006615506110132 4.1023656203808034 3.6127665432030884
A -1.0547378794441431 -2.232467255859532 -4.6390084019667004
A -2.22306232408227 -2.1595578930286483 4.1969262544196182
A -2.8260142511250677 -2.2670887844333367 -3.1476029032013146
A -2.0071912606195519 -2.8581313249165246 -4.3712111872526549
A -0.56275168499765915 -3.3365785702438648 -3.8282928082134404
A 1.0149978951493837 -2.0422536521375259 4.2837084569172168
A -0.5861723943039796 -2.0299311130879221 -3.7121243258030754
A 0.45528906781141576 -3.9494986971884738 3.4196136089856006
A 1.3136758103745034 -2.8154983917440943 -4.2556359587157591
A 2.0239656244681181 -1.9424722147216607 4.3471072065936234
A 1.3177194684670384 -2.6686821223419348 -3.1023004723908771
A 2.8344662989115905 -3.8288841438389727 -3.5541700203364393
A 2.9065978305903397 -1.7592483799240846 -4.2832421544429637
A 3.0253225923712228 -2.4647567094450666 4.0722078224243932
A 3.3933733394345484 -2.9264293600224263 -3.6105232153449318
A 4.5773514277307097 -2.842351660193922 -3.8319309034755973
A -4.2586968258111968 -1.6832185224930214 3.876329809129246
A -3.5670141095929839 -1.3168255575183327 4.5263398856867791
A -4.520802460871816 -1.5455565508795499 -4.4625288729750725
A -3.3230131559386402 -1.3280540284673563 -3.5022322210852996
A -2.5198110621457115 -1.6672217224817061 -4.1395924444792227
A -1.4684867848941285 -0.30039444230769341 4.0693061430582507
A -1.8819216472877167 -0.43734077750554512 -3.8270919009421762
A -1.0827143300068838 -1.1100942960148912 -3.5093415436009714
A -0.18211572245438459 -1.4939961985701158 4.598650448522263
A 0.068807340147207158 -0.16866082912112465 -4.6524332189075066
A -0.88658060902926372 -0.011494433572155764 -4.0615531430747183
A 0.22422645158750323 -0.81362893568397854 -3.6242382558513899
A 0.58698446400353732 -0.97202572801014198 4.2190956873074104
A 1.9725723366608197 -0.74821665474819932 4.4245096675553466
A 0.84635979347299595 -1.8207756445529355 -3.7467248217549169
A 2.356014642045424 -1.0116418287075961 -3.7300719163967866
A 2.9880129810987417 -1.2795098329772878 4.0317670828369305
A 4.3957001296396223 0.22629861022752454 3.7454856360911148
A 3.6200913374388848 0.043446461098058227 -3.707957411313866
A 3.9630728095574113 -2.3284275178285223 -4.5438398925985632
A 3.0368427381974459 -0.22564770840561157 -4.6165774277815981
A -3.0031186834554626 -0.45613492422139185 -4.300416351247323
A 3.7676639805881447 -0.99877641803102812 -4.0193962631383462
A -4.5579759259705996 -0.65028577391788056 -3.5997127563256512
A -2.0159490640064668 0.39463123490487834 -4.488840987941944
A -1.5062800575860882 1.7768981516701898 4.4418575454553402
A -2.0256178603281434 2.2447569747757905 -4.0497108511658837
A -1.4262296569071788 0.37329818404491966 -3.2989761359075516
A -1.1599131058384018 0.69024296606134028 4.2126584491738663
A 0.59002606521522327 1.8482821805822414 3.9208872304136193
A -1.0350038967975284 1.7163833239201083 -3.9183992885057304
A 0.0047019253712001323 0.18471836262910105 -3.5250566565062087
A 0.39905394360756274 0.78002083424686763 4.3171932866676226
A 1.5272670724435262 1.2368063471736095 4.2806580700515395
A 0.95700054339362062 0.86987356682969752 -3.9617306033825086
A 2.0730468939086357 0.079154632763884597 -4.1155267374544167
A 3.232090826778574 0.61545469870493408 3.3336111061253733
A 3.5758624660098119 0.54496738169364078 4.3238544526176081
A 2.9363266522481068 0.87494649373178079 -4.0624388254312009
A -3.8258197821987636 -0.36109991231142513 4.1107208232922279
A -4.2603225440268941 0.86882391853998786 4.1786511164381679
A -3.8688249986666312 1.2538423445017901 -4.1055973094939002
A -4.53888931403434 1.4690575598455624 -3.2371484686515721
A -2.7911955326706046 0.60746790800284944 -3.7756967516568043
A -3.3045320871127966 0.67809574669756512 4.4958869884545116
A -1.2485075711077889 2.8283979426281598 4.6010574126545807
A -2.8733408014795208 3.9222279363770896 -4.0699981459657133
A -0.60895024691512911 3.6634229322683853 -4.3488853314939915
A -0.12251972929650563 1.2147151767801727 -4.2351724071345185
A 0.092560526194370996 3.1229459016089107 4.4092019421814621
A 0.002322043915475365 2.937958263454806 -3.8957671146123962
A -0.062825488996246348 1.8906883883939583 -3.3281889586461926
A 1.0555946937448955 2.6914731359401842 4.3423649148690586
A 2.1672494348313887 3.1936116470970042 -4.5789307104257837
A 1.212508694639312 3.0090782427798612 -3.8406315712978083
A 1.8908082381523856 2.1930405716351209 -4.3774523767849454
A 3.3010505208167062 1.7977936254753411 4.6083100304544695
A 4.4115306182625069 2.7698590551598539 -2.9959317823760543
A 3.1047968249113023 2.8220301513654689 -4.5113285867772905
A -3.9761558536519592 3.2790865427869438 3.4573389717523804
A -3.8963304839391419 2.0591713723376488 4.0896006348086162
A -4.3920300564811452 2.9812974731978477 4.3299506355378341
A -3.7283650954413865 3.342129790445175 -3.6669709955428846
A -2.9158410317731178 2.7423715519404328 -3.555910974972873
A -2.5297646614726812 4.3979969076571521 4.3876245578179063
A -1.4141940319026163 -3.1552993343257043 3.9893281375898573
A -3.6647518506201422 -3.3898870101437204 -4.0794599642891267
A -1.0562945905825873 4.0707628789988703 -3.4312410953519743
A -1.7093952873946181 4.2188145756070341 -4.3477581537079093
A 0.38781933532656881 -3.8487987058678534 -4.3064212716125985
A -1.1928131143888938 -3.8473181735212707 -4.50145795757168
A 0.68622706942850364 -4.6371589144754699 4.379258177228162
A 1.3895721043985159 3.6381306817251904 4.1430598343987972