ITEM: TIMESTEP
2
ITEM: NUMBER OF ATOMS
23328
ITEM: BOX BOUNDS pp pp pp
-15.08190489966774 15.08190489966774
-15.08190489966774 15.08190489966774
-15.08190489966774 15.08190489966774
ITEM: ATOMS type x y z
A 12.939877954801467 14.464559456021675 -12.044747660674179
A -8.8106510514393417 14.792585339403162 11.71757415546551
A 10.491185892090121 -12.844261218109958 14.361762521191451
A -14.122915908204677 10.309944788620376 10.514115098258799
A -14.811387811824922 -11.268386958142036 12.880422064833557
A 13.676139641456381 -11.23313613647035 -13.79158335684127
A -14.152852611265217 14.944197452871453 14.463399760377261
A -14.322432532698343 14.336657746035014 13.385883127484995
A -12.590909121264581 -12.586217650668377 -9.4857147647896483
A -13.644403580918173 -10.341694180903215 15.017079516678272
A -14.021121391862378 -13.027236667033611 -14.428760448707614
A -8.0223471091457679 13.140517629384119 13.660859347735919
A -6.6941588326757753 -12.156909249302752 13.206995196307599
A -8.3700593975239403 13.902023182245243 -8.6100522652119533
A -11.312824076198279 -10.78556253891211 -11.286749655326084
A -6.6989198678214956 -13.670899298185216 -10.452116030762221
A -8.9892810215575825 14.981153733734471 9.7955337300852641
A -10.334328498092093 -11.600749636642982 -12.507113506632701
A -11.997426423576018 -15.058375551169501 -10.190836380011477
A 14.558810250229168 14.552708962154059 -11.579024130299679
A -6.4089754011513804 13.665113881048265 12.868261150125351
A -12.872738025406216 -8.7822179961580904 11.82882972369439
A -10.470739823522514 -11.328804507424348 -13.501801172714067
A -3.1154957596832493 -14.584256365612633 14.204528454101844
A -5.9561064267475823 -15.040763270753869 -14.621369477099375
A -3.5137563539986445 -10.156632933439127 -8.7626760492086611
A 2.2538270012997246 14.802849925489019 14.861413827722648
A -6.0087472758017917 14.214051805006058 -13.961296802259454
A 0.4879344580843803 14.939606435529392 13.157555580623093
A -0.88129015637500907 -9.6421669174924993 14.606509135285769
A -2.6784453560371682 12.763409940893197 -14.317043375050565
A 0.76135957980687996 8.8048578049057173 -10.342765237328415
A 0.66797249060973352 10.152185945289176 11.070611424746499
A -1.1165483944148613 -15.045368519548711 12.735872422973022
A -1.5310819633388613 7.9425039754043461 -12.848332403132845
A 0.39251340901517023 -13.805414209069067 14.860560609605129
A 2.3105383690246808 -8.9300248590942264 10.339895871848805
A 1.3463486126061952 13.442301990451032 13.837421315886692
A -2.922747603065833 -13.094793321408508 -14.209141465011786
A 3.6814668807780913 11.248465506211636 -12.568037234146864
A 1.8313998241095371 12.928519463918091 -11.698180186250973
A 1.4482437938609123 14.053521603290751 -12.807518549469103
A 7.2417493316214774 -14.014985548720505 -6.1497388441548901
A -1.2245820012135191 13.177167153137052 -11.438715268313757
A 6.7158252747905776 9.4492198245161987 -13.860723451810927
A 6.6552502146938091 -11.874701557123442 11.369358722202321
A -3.2013379167876885 -10.444628568996562 -10.56149882441005
A 2.5018801711664578 12.987751244162453 -14.444448725174498
A 6.1169119102282856 10.171542149943736 -14.507174961413183
A 6.2438130223645487 -13.955701869456419 -11.388694030675465
A 7.5527921175917347 -10.627711909780354 14.223959700637728
A 9.0283137123250352 -14.333867321505791 -11.927299934453609
A 2.9450070058214268 -12.92194685582818 -13.701546478337875
A 8.6954054598537649 -12.202774739244745 -12.511191846949616
A 6.6592422732173899 -12.59885039184765 -12.321495673512048
A 10.85443642398814 -11.119197763506943 10.55222818400091
A 13.62841290801434 14.555012895115176 11.749593298507969
A 5.2090618661069392 -14.117993364043343 -13.172844280597692
A 8.2166990559884852 12.685103101363696 -13.40073707213779
A 7.5174533391528113 14.524910837663382 -12.317358416966901
A 14.663058793264209 -7.2273023921089417 11.321369180665245
A 14.299944838013097 -13.451709753130562 12.455910912375055
A 9.6035351333830352 14.896087209549677 -13.926245928566349
A 6.8007621885896006 -9.3273971922711265 -12.599624469369259
A 14.113995327398435 -12.258037287246008 -11.872555194332593
A 12.616276360634034 13.393768603203927 14.479755470139352
A 15.037135970641447 -7.3640822144935889 12.719494426707952
A 6.8303306559781918 -13.785335794431735 -8.9040143405704839
A -14.784217449642632 10.855106965409137 13.020126744810035
A 11.471584704264659 12.663633949698937 -11.342948180173847
A 13.896472223550196 -9.2706783353217723 12.962195091821417
A 8.589342235379279 -11.427551334693971 -13.216032060806521
A 14.224957168288739 -13.460174045311575 -13.541261250331598
A -12.290607890083875 -11.161799241953837 13.648313661371525
A -14.495534066063014 -10.288253124258086 -13.58789001648185
A 13.152107623948652 -13.10464744656357 -14.31952491449778
A 14.596736354425627 -5.5799469937945556 -11.253432424590651
A 9.3316326160801086 13.714964636848407 -13.769543382781581
A -10.052187230106101 -12.408877186071297 -11.852462253966198
A 13.906451863711197 13.449288068823018 -13.002209423370259
A -7.6778099229346122 10.020802031465722 14.44253648971435
A -5.5554268266177305 -8.697397486025066 -11.836472369349632
A 14.891554317457217 -11.683261684182764 -9.9968657755086152
A -10.113445167842233 -14.76575391180627 10.434220249084799
A -8.7176489190393429 -14.553484485731923 -14.352706130083225
A -10.679135451626275 -10.177225804088922 -14.289066040193944
A -7.8482436509517628 -8.1435804223274015 -12.985027086187394
A -5.6645862945215857 -12.302458996775139 14.393925315227667
A -6.7121329085813066 -10.652291044647811 -12.332844308314854
A -9.71494824598423 -11.538367069934267 -10.59688603762223
A -3.4983051187314991 -10.93815067543866 -7.846910253359936
A -8.8400088612334873 13.518822478666712 -6.4689434026092831
A -7.8659794401500118 -12.41332913507528 13.753177540306654
A -8.9109954288079276 11.602714565730553 12.249671795514518
A -12.97181926783021 14.980158484820347 -13.510981264506645
A -2.7259796569051948 -13.092599463786438 -12.96151727475082
A -4.6637065770637687 -13.864353699665806 8.3102398537274578
A -9.1401113285151254 -14.599503117136878 -11.488384606054947
A -2.3950060350907054 -11.303251941218994 -10.783539671347391
A -6.6559762456465554 14.458413765211867 12.185669470804106
A -5.1959055213231098 -12.62190744338109 -14.740144434982671
A -1.9839244211479625 -13.571733017377184 14.886377760409244
A -1.62541145754281 -11.699531120763398 -13.478878416714451
A -3.258773240018829 12.113190750784103 -10.373786784550518
A -4.2118371466759736 -12.335907813058871 -14.415377237239046
A 1.2452139598063652 -8.2533369947711552 -9.3392854760288859
A 1.5069304586624153 -11.75520502008035 -13.986393920150689
A -2.4406642030721417 -5.8814407040822863 -13.427141590349239
A -6.9210261221685396 -11.96584575406923 10.316514275268677
A -3.0174250995406844 -14.426303789283162 11.714344028317331
A -0.092219134388539736 -14.890174835326018 -13.750787906914937
A 1.7706397335341195 11.741532312962594 -9.7430217475421603
A -0.13692799099151337 12.441378754879937 9.9212617357568433
A 2.7025993333010505 14.932951814409003 -13.374717581169385
A 4.4517401017173572 14.857443980894701 10.11316479100863
A 7.4199727005599163 14.493875962703248 -9.5576499449563048
A 4.0047753993663449 -12.726239170228469 14.624517309550392
A 2.0296374276783329 -11.031867955849698 -11.92503866678765
A 0.94649375710503902 -10.679629743621611 13.38545262252026
A 2.8597608149655875 -9.8755579599992505 14.491894494075574
A 11.811831765374894 -9.1128189078335762 9.5728004533192603
A 0.79022892519514065 -6.9511475474370128 -7.2857364671751554
A 0.043651475638541763 -8.6228644936088319 -13.653406505517854
A 5.4862904135040074 -14.671885226334021 13.430593307021555
A 8.7409874212804954 14.481121523987817 -7.6704435444674575
A 10.398942140832517 -14.621639289662266 -13.603525088815974
A 7.2545458851912628 -15.024577984425489 -13.112543119902792
A 9.5422934363858811 -7.663755524321898 -10.20373429033001
A 7.7126354005458886 -10.642145837552931 -10.332526631736249
A -14.584004451245145 -6.4249917774793808 -11.756360371051345
A 5.0358623747177838 -14.2813313949927 14.366439358873587
A 8.6047947192284919 -14.24415051332678 14.931849340700262
A 14.357295673674134 13.956257201397651 13.201177894293666
A 12.664197416500192 -9.3116934737574653 -11.954116332924999
A 12.859080428909282 -13.968237452571877 11.556095494614828
A 5.7633597282376821 -10.867743012142091 14.296925745310467
A 11.783519917102504 -13.666845585044253 13.533256814068876
A 13.121772147631024 -14.388787230767383 14.515785502347461
A 12.725894364500652 -9.1870719353902768 -13.037766303713378
A 11.834570196981849 -8.4492635585143212 -12.289620305558081
A 14.842426001958513 13.98944198151937 11.647063924155979
A -13.469418760825482 -13.151770746116979 -11.789750864886106
A 13.016484815497538 -13.988803714366972 -11.736705120136191
A -8.4339921437709542 -12.185063960206946 -10.603780788294326
A 12.532115624395557 14.756063739501245 12.284172524937558
A -12.1172654887761 -10.524263409453456 -12.90722001313185
A 10.532976615531501 -7.4614574318788449 -10.676209013896546
A -10.77474890640169 -11.72926143821228 13.726590994538977
A -14.626111628966143 -13.180365524476464 -11.210621651696902
A -10.284431906518998 -8.2221064805732524 -11.693909314022438
A 14.019506011039768 -9.537976606668165 -14.449126600666183
A -5.7851681737541822 -9.674434391414021 -12.192790664450063
A -14.612288713490415 -8.3693995664298715 -14.770368322326842
A -9.979191150466832 -9.5021939973145102 -11.622265841082831
A -12.896597941252162 -7.7600561098859577 14.057149258925383
A -7.9729265877687343 -7.8152164956411498 -7.294684677433418
A -5.6331595881528438 13.277037194368416 -14.48170011893921
A -5.970923966578475 -12.788611188088916 -14.112324594600716
A -9.5438101290621127 -11.131329714696118 -14.632463207572261
A -8.3700227122081756 -6.7723581417988603 -10.646468623494432
A -6.2098945561619106 -12.719266047662073 -10.425760791574351
A -9.2657306846612979 -11.837241710721907 -12.259776225451755
A -6.6637905190044835 -10.046937519746871 -11.068224360903139
A -3.9283628143599767 -14.335872437942555 15.0386578289637
A -5.6593330368644379 -9.2819712541967814 -8.7786319054148958
A -1.4538408455674445 -12.485465762517805 -7.7949604816365321
A -6.9553967534183903 -5.1028903715448042 -12.474992798420807
A -3.6668753064863293 -11.493009396574569 -14.352179932680501
A -3.2591487787414888 -10.013564798196706 -14.873446531619589
A -5.2297416266514318 -13.499805119272512 -12.132867856894316
A -4.7314936138720345 -11.103762398744527 -13.931027892439609
A -1.0959179070470979 -12.931349424140635 -13.283175195213841
A 2.4856969988104654 -10.7630130343573 -9.1327609662704194
A -3.5212785367886354 -14.674342244784093 -8.4204999235521072
A -9.2693603101659949 -14.219194868632988 -10.158568778933487
A -3.2003048508816114 -10.827860220723313 13.02819711260813
A 2.2427688300125093 -11.006052555903775 -14.062610427946803
A -2.7575956398834429 -11.272076813917813 -11.798954200705833
A -3.3423033210484556 -11.344759024412081 14.812260284974512
A -1.6718187323536715 14.538080195039647 -10.354380038852023
A 1.7207284303581538 12.457287934665018 12.693239556436165
A -0.86583645134876652 -8.0653306759889816 -11.481862855487442
A 3.7590417076004305 -8.0813832578415603 10.447246689139337
A 2.6978494033458897 13.228975312036056 10.600098601697567
A 3.2365204132281944 -11.270668783146563 8.052767626076081
A 5.5240927357827285 -12.488010419444757 14.992866910218137
A -1.8617708086101992 -9.9035253079575742 14.614827707018897
A -2.2017050781245038 -11.922446603338351 -9.9935676652899694
A 3.8198675154661874 -11.64509210990871 -10.40357189970848
A 3.6079697172509508 -10.27900362271485 -13.563876098249377
A 2.8241707123942996 -14.21524679157582 -13.834522533563076
A 5.8719722522500595 -13.323897828333278 -12.234679437782528
A 3.4294367513004653 -9.8696614165219287 -11.185062273945553
A 4.4279855345413468 -8.0283799955414157 13.750475009107504
A 3.6939936622615677 -11.676603046773085 -12.167588174524411
A 6.8342002553847152 -10.880016964211897 -14.094152116446494
A 6.1376026513417088 -10.297866730204738 -10.819577815421466
A 5.7417878271672977 -8.7844472413250667 -8.7721707133705582
A 4.4548432188076941 -7.3445566778979101 14.618028511674027
A 9.8318187587515684 -8.6713612165765959 -13.035015878167963
A 4.6743740964104399 -8.2371698073728101 -14.667650782057139
A 5.0245946810413162 -10.847428240633352 -13.115826876149356
A 9.503980972832526 -6.5988501662442847 -14.605083640020357
A 5.8539808699815303 -7.8682513394539555 -14.895578587633397
A 5.5144684971791698 -6.7354074748853927 14.560368592472544
A 13.245673957276532 -12.994511799587141 11.54729790883502
A 7.9242684370483181 -11.136054058041735 -14.107495033532548
A 8.6885730436046718 -13.4888594309722 -14.521745327719303
A 14.010664401633308 -11.268423075153326 9.6223736071478569
A 13.206322350130451 -10.27659115081731 -6.8298103344281031
A 10.601064097322912 -14.32492359679582 -11.20948353834493
A -13.217354855765047 -10.595940420920833 13.467022763507597
A -14.116554516570266 -11.347364529865427 -13.38800066750494
A -14.665568447517845 -8.2851410099112073 -12.365234502499341
A -13.595597684167446 15.001348728872447 -12.531766473483989
A 14.800679815877402 -10.934168237393886 -13.379647518197824
A -14.516025167986051 -10.370268678867131 13.274051924914847
A 13.639213381627895 -8.0746797652668629 10.785299579840199
A -14.920044261169481 -3.4268045877899675 13.069109348007348
A 9.4262461845183498 -11.090005980541928 -10.890830376822949
A -13.164639991251223 -9.1813279966886761 -13.296777639821372
A -8.0799274889620172 -8.5635276774581399 -11.13571275106105
A -10.980613361488308 -9.8957990427001068 -11.763211535756469
A 9.7452626972507357 -11.626020223480086 12.524350576921281
A -11.490615530427537 -11.682838577500075 -13.830423657152977
A -8.0536763050066718 -11.216003742803109 -10.043213148745306
A -10.892224660906043 -8.57192040828666 -14.686168444063764
A -11.992002015073332 -10.189403209308004 -10.807076357549727
A -10.012202722157648 -10.640293780415194 12.8287229096193
A -7.601744680204984 -8.7471807944523672 -10.108688118139456
A -6.3242460016422282 -7.4569603769405672 -10.225948586208176
A 0.64477225283541839 -14.389637806583664 -12.284281384253259
A -8.9132911805090984 -13.970371835845658 14.587152631341324
A -5.8558527569702825 -10.37481173262956 -14.506830659961082
A -6.3249860742047606 -13.052773613397855 13.521427263155678
A -5.4770661346578091 -13.142700800852468 -9.8176199328470215
A -2.7149717313838546 -11.282353515586729 -14.116684255755217
A 0.04546100730929116 -14.146397029801269 -9.0878518918088478
A 1.3723098735038866 -11.790961141036489 -11.670730251837538
A -7.2907483570373843 -9.0123751311433935 -14.767078550457244
A -2.5330307259197 -9.6658282858227818 -14.026548558159153
A -0.43882652836873237 -10.886215487385828 -12.037142324313763
A -4.6700372782560136 -12.199930075225474 -11.904760518410697
A 1.8087387277036342 -9.2815975698442976 8.2029707287835461
A -1.1963143648674899 -9.9967250725397019 13.591459817495293
A -0.63607403560285369 -11.894346378818955 -7.2826985579171462
A 0.94462443622497094 -4.0079128740382002 -9.2768233475737834
A 2.738853884219917 -11.963705968013027 -13.962540033120302
A -7.342034953281126 -13.398697569403115 13.552853118173974
A -1.124671440367238 -7.2841629496956939 -13.317436216585742
A -0.63555870800943137 -8.4779052006030522 14.345752294197489
A -0.40856029422917056 -3.8048737354113231 11.851533129042037
A -0.27169966256199463 -11.244156975208337 11.326092143309406
A 2.1314904821658214 -10.213108270250293 9.5698961347494116
A -1.7572628329718691 -0.048514898237496919 15.06169222803274
A 1.0866826795229598 -13.985158418500379 -11.228757785103356
A 3.3860406831431504 -3.17767051920959 -12.995467120229078
A 6.3977712643114844 -7.2838278288787466 -11.707544154861449
A 0.62115622162087247 -7.6053076809698901 -6.3012729612067639
A 1.190585627549124 -8.7107849110383864 14.127597207514684
A 0.73953989525296782 -3.3211357693864239 11.926840816673348
A -2.9493312310173296 -9.3563655361437608 -11.194472461110507
A 3.108020580685829 -10.597904238397945 11.835553296930152
A 2.149679253496227 -11.479819188320967 -13.05075184788608
A 4.2008147653260011 -6.8822995571244485 -11.769927993906769
A 13.28718009308613 -6.3714967828217359 14.228876766459249
A 4.6081936137296822 -6.7889277710039355 11.493937395212734
A 6.5227687556718221 -7.472887765642577 -14.022972290231774
A 9.4261003657371898 -11.677410733716822 -13.735551477882824
A 10.778555395173264 -5.1073671586639824 -8.943765919316256
A 10.037599453303384 -10.827319910518833 -14.688629731456025
A 9.0566842598884012 -11.548962400211773 11.780082661049068
A 14.50143911680777 -9.3696013277453094 10.18627074696289
A 11.0725631815376 -10.066472508919057 -13.893280492493513
A 12.309413736398632 -4.4574736030758562 -8.632834475884227
A 11.986819092494061 -10.711126262073963 -12.835778384141634
A -13.05659199232309 -8.112069343437156 12.891782767551739
A 12.195650726248136 -9.2179782563536801 -13.922138633733798
A 11.641317999393442 -7.6959527649461643 14.786098489941406
A 13.714045318646464 -8.1733649522453593 -10.830875100794756
A -14.167026426984004 -1.3112181096313398 10.399075711812802
A 8.6785026751753804 -13.091884180072578 11.946493380830326
A 12.662380335024277 -8.4379368853118013 -8.7079413266455621
A -15.043444448267024 14.648543325791278 8.0757336099345025
A 13.20166271244193 -13.728946595974202 12.512326952905958
A -12.025435773296019 -3.3370208333528617 -11.842179452691939
A 9.0458038539115453 -7.5891572923335344 -12.0841541495216
A -8.8680743977192815 -7.4031098490721083 14.537025662921579
A -13.568851571897017 -1.273856379060117 -11.136815142963508
A 14.701442913008199 -2.8398952437005436 -14.412445412357803
A 11.049414997696497 -8.0739848515492056 -11.667831826485431
A -12.062553748677075 -3.5239894557393097 -13.559251944267833
A -11.038642674626724 -8.6928820545622916 14.418317621166441
A -9.3941078509157858 -9.4037239888285846 11.758537992342593
A -7.7219915440194189 -3.0623412399197023 14.528742406035754
A -14.836661494577561 -6.6654982569752432 -13.011029453988343
A -12.410255422587019 -9.884152094569945 -13.665797143420328
A -9.6603359426186888 -4.0400263762451711 -13.697201372539656
A -9.2179485571467232 -13.020573003504401 -13.840111769492687
A -12.192100658047035 -6.8737102219383477 -7.5147677075055208
A -8.7887232004490805 -11.024312015163822 -13.951543578733837
A -9.3771733238313093 -7.9287382672608278 -8.9368683441495058
A -6.7629683124440279 -8.113338061478558 -13.438380949557745
A -5.7131805162099498 -14.037420622543715 -13.995754870721807
A -9.4600074892882251 -11.413459001052932 -13.232682582392339
A -4.545098739162813 -5.1847151801988645 13.93880448000824
A -4.6730014427733568 -11.50864169837857 -8.7219261701098283
A -5.3536941029990475 -5.3832606821722777 -11.870625136177171
A -6.6227073523597353 -6.9618588165301016 -13.854926077165258
A -7.6216902336830881 -10.827616849919101 -14.584338263066172
A -5.0576791357618127 -8.1863963778986442 14.884108139054597
A -7.3205810450088951 -7.4540943784605371 13.597894177581439
A -3.3133161048994215 -7.9499850597979149 -11.710494636306535
A -5.8240065021427299 -7.3547254392748158 -8.2865728300484331
A -4.9836272381221463 -13.18530551495493 -8.7339889841518819
A -5.6176087942058599 -8.4273936539968215 -9.9450778603842451
A -3.4095621009694868 -8.6190832143007601 -13.312910551385331
A -0.22115030717059678 -9.4846769692128081 -13.176162651030136
A 5.5365230106808925 -9.265195826639399 -11.248228779541646
A 1.4059895985978252 -5.1946469795327168 -9.2234498762269741
A -1.9727142494087699 -5.3055708988469892 12.688817067309792
A 1.7439337409098958 -8.2324377525251062 -10.778249317521857
A -4.7820850399705357 -8.3828893434981655 -13.699879882744323
A -1.1194233894448575 -7.0818607037021533 -14.893891288721852
A 1.3053046884716792 -8.1599642771990766 13.044062407262048
A -0.43971262416843127 -2.2832344510267788 14.606875205663741
A -1.0961191241784918 -5.96988834657909 -11.315308094880237
A 1.6931905567401955 -0.25031754309944038 -12.539423684825719
A 8.4322292817829574 -8.2926661246414657 -14.307380228359486
A -0.94804045214726318 -13.064498617854399 14.864640771401824
A 4.4002374714575501 -9.6908339399819123 -13.211235215872566
A -0.46168513104807246 -3.9216380476950756 -14.610240753000211
A 1.1116843084112578 -10.596698099347876 10.84721337005459
A -0.24417670043510079 -3.5620002247392861 -12.475969914344654
A 2.2581001661332758 -6.9594970025083382 11.871165613686038
A -0.050017991537185849 -9.948415253248827 -12.2125955845432
A 4.1164307989581594 -11.369122673100135 -13.065525463487017
A 2.2336390758398066 -5.5900286687390004 -14.525557587478325
A 4.8219560503078656 -10.312739433518745 12.903022513676685
A 8.2100099231634065 -4.9973417030335705 -14.605046237809232
A 12.59362970976443 -10.096709337438025 11.493084031283225
A 7.1032171815374046 -7.2363286142827352 12.582407611647444
A 7.2329457874242582 -6.7459427065752458 -14.0106149476692
A 6.5215676181427336 -7.1154233012320471 -12.849497899221339
A 14.315784254746996 -7.9714955392375053 -12.597411917234734
A 12.535434970572794 -5.3758231770284919 11.483246065811693
A 8.6729154038325298 -4.3285558315624826 14.722157936274311
A 8.6285875990930663 -6.2997168719157104 -15.078522051823663
A 8.2543915213315522 -12.126377083313859 12.336368525087757
A 10.393822666626162 -9.7400685220879133 -14.918271901954007
A 6.4715079704588678 -7.0071101281564987 14.935944963046856
A 7.4686312841123952 -6.4777805840157914 13.302200895301821
A 14.339318283717354 -8.1037512292484735 11.77854297079579
A 8.5982179604941891 -3.8977846851502851 -14.289123006366616
A 13.154351859396726 0.58010549758103169 -14.223797186490108
A -14.96552782175095 -8.425195384814943 -9.6077899695607041
A 12.675162424210134 -7.5639168939181136 13.569410561902535
A -12.001277493389891 -7.4657447915085235 -12.476239895597462
A 13.338070405614815 -0.66459882713259366 -10.099012866513124
A -10.427618077366095 -7.3179824749546434 -14.541313010950381
A 14.260722454809951 -4.5471132569032289 -11.050959817701262
A -11.824417012161318 -2.7095038612457043 -14.796911401200825
A 14.062046491616085 -0.71382870713128244 -12.330751918122353
A 13.576374286865986 -1.439538956760225 -11.7522166439327
A -12.237025318153783 -7.5387659286837208 12.388782705808966
A 13.076223787472664 -7.9112203959469944 14.434502551941723
A -14.895657259634122 -6.5867562928018044 -14.968648729571902
A -14.435951918362875 -8.4263560044812849 -13.738504000231302
A -8.7794603487629459 -2.6666180793170389 14.245124019928841
A -12.401835003428143 -5.3509623587238853 -12.885438095651134
A -13.202032563974987 -7.2800968822322751 -12.406114347624579
A -9.7363841625711132 -8.5347592346241949 -13.626553914963226
A -7.1094913855345938 -10.184845171972212 14.997972180119296
A -6.7544948850139521 -9.1790232527859352 14.565430384413142
A -4.8644447979530563 1.6955957275686522 -13.767509928941788
A -8.2190286005524555 -6.8241161420893812 -9.4864112740171294
A -7.967776748381123 -6.0044157033551278 14.996220601086018
A -9.7368470349349625 -12.40610431524771 -12.951902817006147
A -6.842965004392692 -7.8683946846624337 8.3400249134016509
A -4.9298375645140595 -11.118778521895232 -10.058920985759245
A -6.2520254563345432 -5.8631822117832222 11.341375245285708
A -6.7206739039325987 -11.14212678434853 12.877306171085339
A -7.5191864793555698 -9.8896831004706076 -14.217592764297105
A -7.1551073254283386 -6.3879508545272063 -13.081079578919919
A -5.2109658166015365 -4.5972271363229993 -7.2520287553815876
A -4.857292262297749 0.10272515685114687 -14.607574726408473
A -5.0331825990573655 -10.157823861428025 -12.642891552300812
A -10.298007777065102 -4.4610427381751396 -12.959343598069371
A -6.6240280597626366 -8.4154598014577733 -10.147624515301422
A -1.7426478672498917 -1.7882514557200961 14.582807688991716
A -0.86760773610989195 1.5426307765239378 13.854565788327875
A -4.0942468730908645 -7.4936713519594607 -6.8041861159650798
A 0.9590793087084436 -7.3036663769866239 -10.855966419962479
A -0.8542442186449144 -0.10811738656258793 5.1252855926859739
A 0.48097596292715084 -6.1426619449628106 14.623943914840114
A 2.9088871069641216 -7.4634994683369245 -7.9838861995782624
A -2.3047358976707013 -2.7308512867239352 -12.799755959119116
A -0.84268027719887439 -5.275290701949312 -12.069392716715264
A 5.2760928202498265 -5.1652608089989327 12.96087124348875
A -0.45283832315256978 -10.31648149517167 -10.962228762671268
A 1.5853405759186745 -3.8561510808568542 -13.092442621345338
A 5.4491532257431761 -14.218909806933963 -12.047320320080921
A 2.8345142043404405 -7.2344662113149854 -13.573083201664319
A 5.7877015538330232 -1.5974568698133806 -14.754769290317153
A 3.670163039200744 -2.0787477693866463 -14.733235862680051
A 0.16202777945032176 -9.3531271553401076 14.99388295472356
A 5.5937697609812211 -4.9975641849280317 -13.169903415077883
A 5.1924549039547481 -8.9703557069675242 9.4956076804702185
A 9.0728725034574911 -5.7308462145635097 13.894818514250305
A 5.5750619796805143 -5.6265376574745209 14.467598632388547
A 4.2165518273946363 -4.0027900462562895 -12.62738153296935
A 10.054301851914971 -10.065978633747477 14.332281895793276
A 7.0290455349228056 -1.3391637325824142 9.478504073556703
A 13.263279089774318 -4.5924016919761383 13.529201984938114
A 10.538462393204947 -4.24112979689317 12.546332325504109
A 13.812027929724417 -5.3031460045499337 -9.9724298151664819
A 4.1510543261440445 -6.3259721973131962 12.27599990237742
A 4.5421288161249 -8.342531638347797 11.093057112901482
A 5.1466772399315843 -6.6361236102852299 -14.5667015305639
A 13.79046486534714 -0.78411668019543657 -8.9246441589627405
A 11.559220419600861 -5.4237599370026297 14.662312312030648
A 6.585561112400609 -0.71657393224544996 -13.602707131582527
A 13.745234158038304 -7.236039830572115 13.961687703793146
A 15.074788134689999 -5.6453416764723094 13.165223162520734
A 6.4808999909123637 -3.2000662720751083 -14.209736020915994
A -9.6316783461411468 -5.0736621256026213 -14.41048778659532
A 7.3209888450624723 -3.7263292762711879 -14.893202923396789
A 6.9237346661100698 -9.8791747285153164 13.968806883193611
A 12.447235577682708 -6.7870465117986019 12.861805829769622
A -14.153894482782619 -14.386983517978287 -14.170777178332671
A -13.886085957173064 -7.3200672616250477 12.772570457950639
A -14.569560507736758 -4.4243944688118839 -9.9731777106666808
A -13.878874417961955 -0.49081435372571719 9.5537227522648251
A -12.527967172721112 -1.5650674084233853 -9.8613271156115268
A -8.689200638002692 -0.53814043411400525 -6.4924499274143654
A 13.358433119035661 -2.1466374962924326 -8.46399838648518
A -11.742089732512266 -0.65671190191658058 14.612093209133693
A -13.669797748634986 -7.0712241598480041 -11.302750130720211
A -9.1615402967658497 -2.070139896513211 -11.864783552165841
A -8.8355086441634221 -10.221337946553959 -13.019396318519016
A -14.710090384558706 3.5975547858061008 -12.78010570716517
A -9.7208727972032616 1.8028836761963425 -14.25628494200013
A -10.181534258881031 -8.1511496427076509 14.860240918204623
A -9.3655868639943431 -3.2924925623580341 -14.424452113704675
A -10.028134974360631 -6.214218336757356 14.380125293313313
A -12.227861949898857 -2.4835412452265522 -13.616456365318486
A -8.0579058313958161 -10.377266423208615 -11.074321197966055
A -7.3473241177311523 -11.492401395973474 13.592170547418839
A -7.2209732383122862 -4.4352699305412191 -14.148178458098865
A -8.3415899236111795 -0.36033028800410477 11.587354570508429
A -5.1202229407170705 -2.8272939669728654 13.220318101816275
A -8.0027463175884765 -5.0216763400107967 -10.604807484572202
A -5.3242724913217412 -9.6876538948279745 13.139918770316617
A -5.8544181396107975 0.062227849398370873 14.406767731338702
A -11.117061532828817 -2.9070811114652519 -13.986729733998507
A -10.648354011310143 -4.0447888380231634 13.362137032439065
A -1.8623524780382281 -0.30437942637801008 13.16434248047638
A -8.4563222821501718 -3.1225538360760869 13.383534383643028
A -2.8810706917942577 -5.0147215949218023 13.681186838513712
A -2.0080878556538377 -13.730606420351034 -14.170223130573564
A -7.2057521524657115 -2.1866240904649339 11.588797053184136
A -2.5902826631252052 3.5090223612911844 14.990730709169659
A -3.1311614403795351 -1.1000108211861188 -13.147677722329757
A -8.7163425221523632 -6.7318780051773626 -11.891555679760435
A -0.49421933280043173 -6.1613967983629818 14.341079808162339
A 1.969395696627094 -9.2528244445817514 -11.167888691396612
A 1.3661271619432727 2.2069071569083176 -14.678743236710085
A -0.76641948045114983 -3.1301715730377375 -11.730751902961103
A -2.1717095922698166 -1.0129700842878597 -14.954532254479522
A -2.3326960108108725 -2.0222044704253697 -14.746604999470883
A 5.491739299633827 -3.6721330916305024 -13.705564397437655
A 3.4899039683074009 -3.6042629186304818 -7.5466938858020471
A 1.420411249195026 -9.4211922114179494 13.325469176919571
A 1.0829807921757146 -5.2103667170755585 14.33166516859618
A -0.65900743764233582 -1.8307871178352393 -11.848422182557799
A 1.1547096066176157 -3.2499535686379275 10.973104350334642
A 2.1946227641343881 -8.0072031396184933 -8.5429007319931802
A 5.3194434281763705 -1.1424510492471474 -11.122219351362061
A 7.0344470401558929 -8.1313638422185708 15.02092493024678
A 1.3764123252953848 -4.8211578285101826 12.405319086013607
A 1.6325294285028931 -3.5817303477798093 12.350358639531356
A 5.9993366682760731 -4.1743643932085748 14.123075545122267
A 0.86764189755796572 -1.3929983459894748 11.888322756211263
A 6.9085461426184427 -6.1819762464500032 -12.266996321439215
A 3.1624629156999866 0.70279183841784709 14.808578146392911
A 11.821167412337926 -7.7346118274699256 -14.296407172217663
A 7.2608618630251831 -3.3274085202216801 12.36140152525336
A 12.187398122585259 -6.2606584024084988 -11.496429846786958
A 6.4821812017300013 0.066265415040586417 12.980360024319891
A 8.3322500094832499 -5.8909630897047185 -9.9550532901690207