ITEM: TIMESTEP
4
ITEM: NUMBER OF ATOMS
23328
ITEM: BOX BOUNDS pp pp pp
-15.08190489966774 15.08190489966774
-15.08190489966774 15.08190489966774
-15.08190489966774 15.08190489966774
ITEM: ATOMS type x y z
A 12.184829277726259 13.729089021009958 -11.885107375754822
A -9.0618767064527166 14.895238138030194 12.675569454105485
A 9.0357647047423342 -11.841523500707996 -14.402867210890756
A -13.045663092569283 10.354148436388389 10.871391838902049
A -14.64602627168558 -11.360924530148592 12.260480669596825
A 13.280110742147352 -10.81324878588258 -14.286765167115579
A -14.553805378749022 14.827954936044131 14.0749977100928
A 14.967260208599276 13.956984423866734 13.782402192747165
A -12.859362633532026 -12.269937838907738 -9.725757413144315
A -14.006995318080637 -11.987189142747425 14.211723905562245
A -12.868211419576216 -11.289324230347285 -13.219658628220451
A -8.1256756616012016 13.638862926346665 13.441480371641642
A -7.3331017884609375 -12.098198631145866 13.63133669060632
A -7.7895466767424022 13.503816090264563 -10.184599062033158
A -9.4066200065931174 -11.030816824479372 -11.938495706452358
A -6.5453677635768859 -13.779331330573983 -9.7832206780873925
A -8.1119327603942928 -14.861390607977075 9.7153109562815665
A -10.121478792225405 -13.024154599632512 -12.108718110146643
A -11.41087067926871 -14.67502044259327 -9.7048621139296891
A 12.149702868978954 14.829345073854768 -11.930093851028289
A -6.0792208120758344 13.786626661531701 13.454149703242065
A -13.231286676852783 -10.248997402373316 12.682740552920388
A -11.510127160507727 -10.928839895432157 -14.697811601443902
A -3.2093925283673097 -14.775812470622441 13.793548323584089
A -6.9533607358575145 -14.52452576350897 -15.047960741082608
A -4.0668623078204513 -10.615493172666795 -9.0263480045657616
A 1.5038559558001534 -14.533294213528503 14.391408588801594
A -6.0353772457412198 13.629540770689264 -13.380691130107811
A -0.16420016561688272 14.710815165625013 13.929751936418082
A -0.56843340245067275 -11.152966011475458 14.288031547441335
A -3.6134254678351265 12.796574965953175 -13.196028184270137
A 0.1563815065539215 8.8415058008919978 -11.027615146665063
A -0.35211316888043076 9.968227107834819 11.532757554945251
A -1.8986529268694317 14.736245837181778 13.071989292081335
A -0.23947356904554354 8.6554249671286438 -12.856081364467647
A -0.23362568357791569 -14.812629225787743 14.881810178745342
A 1.7378405212740524 -9.1947567204366134 9.7735433721397396
A 1.9921960239264014 12.419059907104899 12.822635800713918
A -4.7916131043396142 -12.416681855786218 -13.897061805338845
A 3.6836382567584631 11.334731210158898 -11.666830822970359
A 0.96945350074890335 13.510841350065824 -10.703395462962719
A 1.7499895168433179 13.865121857683258 -11.35588433478104
A 6.9557159421985046 -14.072345575433379 -4.9651613405040349
A -1.0742763860542446 13.259786943640549 -11.726369930933895
A 7.1267285313433399 9.5992952415416664 -13.709689603814013
A 5.4619322608368828 -12.552194769979623 12.007986736455662
A -2.6715274901635584 -10.016491541239457 -9.9570629753419624
A 2.1284257722599387 11.865618861346533 14.405029289308469
A 5.9446191989015125 10.329780524233234 -14.238211028468882
A 5.6882355134880287 -14.558928608837244 -13.06889556241514
A 8.1963438242514268 -11.961897496948492 14.199626361203192
A 8.3343908583507442 14.99523754634491 -12.99454257886163
A 2.7153599513987237 -12.136214839284966 -13.329760046708071
A 9.9139965143812514 -12.15143762702804 -12.396871222134893
A 6.9081468754308251 -12.472437246375145 -12.103129965166138
A 9.5840548869902165 -12.328120790265187 9.8182500358579006
A -15.038754058194915 14.188347336351422 11.059906432209232
A 5.832514314289126 -12.828605097822292 -13.947801702841755
A 7.3742062098959202 12.807542353240381 -13.70273237475892
A 7.5750853078601343 14.350347556163667 -12.765203157308513
A 13.922230855284658 -6.3289795766203181 11.942323787356006
A 14.98569071166987 -13.691338475754135 12.779429646348575
A 10.084851582991506 14.827533367613803 -13.425080964950769
A 6.3009358170327721 -9.0212010977383414 -13.167750091918593
A 13.936539553627178 -11.625832892477179 -12.331110352948105
A 12.756639469361692 13.143637296326892 13.788545488975457
A 14.730941665435919 -5.0701151649724618 11.795598903199663
A 6.5379976858386186 -14.542539814491839 -10.186827981890321
A 15.003484319389392 10.618742770938933 13.627603204260739
A 10.835771281141886 12.361624407142571 -10.594997963522369
A 14.652822161583497 -9.085692155359208 12.825556441734436
A 8.2807712193550991 -11.163644958142626 -14.125400031923689
A 13.795329864957868 -14.100348942702974 -12.862752636649432
A -13.64235017970301 -11.646289451065895 12.298944559762479
A -14.474340953892009 -10.721235282693767 -13.590202378327017
A 13.249214012000424 -13.268750444339236 -14.926975254854838
A 13.885867992751523 -5.165194411019459 -11.144117250832963
A 9.2512747742418675 12.671346369365725 -14.173379594765484
A -12.001832179790993 -13.256407751264176 -11.946009527214683
A 14.055317985539912 13.546321728941466 -12.86624974570571
A -8.1072365585576947 10.413700781139299 13.943423346568256
A -4.7426499937167179 -8.4595865765558038 -11.063696832758241
A 15.040264074698948 -10.753696693099632 -10.988144243223164
A -8.1327641363367587 -14.111378338532106 10.585211107675237
A -8.8964206544534754 14.774024807051454 -14.31889569782861
A -10.811853511947634 -9.1905847804356355 -14.552192954295496
A -7.8588243931558397 -8.5279264856588828 -13.055427992157968
A -5.6870807468985385 -11.467850817918347 12.7489224431
A -6.6089812774539007 -10.181441249012265 -12.454171490044416
A -9.5494119386947709 -12.365507377175128 -11.371337286013031
A -3.4314107010758232 -11.57565187685498 -8.2351108156625656
A -8.968172783566482 13.838114369887084 -4.4604163746376218
A -8.1834087025608646 -13.757171500224093 13.02138691942748
A -8.1227348510217166 11.955397515359309 12.622458058814194
A -12.651226179261007 -14.270509011229823 -14.100582864837319
A -3.0918747234482007 -13.014239063492886 -12.107994961910912
A -2.4580806660668304 -11.946452464941444 8.7938283445156813
A -8.9045237667946271 14.570281628552287 -11.184057508565891
A -2.1594068314006596 -10.768826428952767 -9.2980324538908299
A -6.183880453165127 14.098447575650106 12.294272041866876
A -6.1398632127610711 -12.468840111638695 13.589777406479332
A -2.9536836989391926 -14.044050144709697 -14.314235754176806
A -0.48502044476488543 -10.994039654803435 -12.782365131225593
A -3.4478856392062331 12.143632874960014 -10.879121408109111
A -4.0077818698603291 -13.874314543308468 15.054253074952328
A 1.4276120198180593 -8.7017051393069487 -9.4180024693304283
A 1.0684495723494751 -11.812224688032103 -13.784173456871796
A -3.7349282704647937 -4.5449178585233287 -14.277461413937132
A -6.3708472222948958 -10.990820416856691 10.864497441067805
A -2.7818178630940635 14.936456706734658 11.979286481750446
A -1.0215473865595712 -14.235180100194956 -14.745348609554016
A 2.8386862261999402 11.181367628184477 -8.1021122107305867
A 0.35078524165145564 13.371155776071362 10.313319568758702
A 1.8710913765514252 -13.577061877986274 -13.609812174620314
A 3.8421740129417858 -13.919721592157469 12.332627868789938
A 6.575948839571347 13.797347007995338 -8.8376916186295507
A 4.5897024413710996 -13.128214109396131 14.400799224453362
A 1.9276801573082964 -10.873849916136097 -12.150963945478907
A 0.86647470600494492 -9.3156116906205177 14.102978235732168
A 2.7181723940595299 -9.8569328622015924 -14.955186161763772
A 11.74755865951785 -8.5434483468946478 8.8326190009410279
A 1.749093976410381 -5.8230064676452695 -6.532338052765323
A 0.016809703729577158 -8.1900186929394749 -14.037897475353651
A 4.840770329432214 -13.948626021756059 13.668229537507393
A 8.5273875099447398 14.366001307999216 -7.1146963943702257
A 10.781549565543758 -14.629073433840176 -13.037593421499764
A 6.7538078141159685 -14.71692231781287 -13.480386871269097
A 8.1379593005599418 -7.6613302521983071 -9.5298702164115312
A 7.4158127104378364 -9.4597047153309024 -10.173697616715939
A -13.864013193263833 -6.7184362254257657 -12.152991793413479
A 4.2766395038612144 14.401876756738758 13.199981232593535
A 7.5894390499609612 -14.668712637566571 14.748189121495278
A 13.605261846550146 14.638055886365127 13.410355080246925
A 14.638731913816908 -8.3753537474598012 -12.174861745437696
A 13.718499055742376 14.843449311822033 11.53334378146354
A 5.8218688033654917 -11.12218626134972 14.898431364698405
A 11.487425741782461 -12.459384281785251 13.36426351008911
A 12.091581256953836 -14.530783208260347 14.308021850770643
A 12.543033768543465 -8.0163064175312844 -12.489098330101088
A 11.873868715749904 -8.6316728738892046 -11.608848515009583
A -14.734209914398184 13.081930471560948 10.008908565251645
A -14.238315253229683 -11.420248514241111 -11.6345175370309
A 12.262849044319346 -14.731570193522787 -10.839100326758299
A -8.7090268073129433 -11.986376450379236 -11.976648988502243
A 11.701195946564813 14.909809830459375 12.406840854356622
A -11.477477955456051 -10.435416597150295 -12.970145740897735
A 10.174182321952236 -7.0920816337160257 -10.309475105883248
A -12.913005037918161 -11.569731366736336 13.80979188487273
A 14.707723293248119 -12.642847743818708 -11.755642544633826
A -9.390356085284111 -8.3447937256757303 -12.453252478005943
A 13.675839519175826 -8.8630627784369853 15.068064350437059
A -5.131817898998368 -10.457529058731234 -11.113128454766571
A -15.033666975962557 -7.6884019659033207 -14.315152483636519
A -8.6103955775983625 -8.6950298961354395 -10.984800967117502
A -10.964512104745422 -6.9523171845723688 14.305582941985454
A -8.6819869128958018 -7.8024050318523317 -6.5215954881226557
A -5.1780387233991103 13.063193415801038 -14.640457224630493
A -5.3913659577383513 -13.399088932334116 -13.368972717782365
A -8.5930812249044042 -11.282875573829852 -14.403101057482933
A -9.2587759963013987 -6.6583470237176705 -11.263093627918909
A -6.806802494351305 -13.028405314497137 -11.403554571478701
A -9.2409276221498047 -12.072820379321607 -13.018427545002632
A -6.0700790338856212 -10.039742674086707 -11.01492933873207
A -4.2506029845968882 -14.511121199775182 14.291978367842505
A -4.7930141920448444 -11.471994988207143 -9.5759932719625969
A -1.3536739886221962 -12.744495227367121 -8.5155954983371558
A -7.7900670389415634 -4.5120888582625973 -10.978160226549122
A -4.2579021316894563 -11.481196965059791 -13.911348313188965
A -2.249366373776883 -10.527055980759526 15.025006836579752
A -4.3747703091195493 -14.388949527458099 -11.943326219120852
A -4.7317392561172422 -10.093654245461243 -13.243881584620908
A -1.3549369128365618 -13.254745084601197 -10.942036402444916
A 2.7198394827692565 -9.5798550099452928 -9.0628033576663132
A -2.9255765658904682 -12.515533113610912 -7.4277351457296081
A -9.5092069340408401 -14.581329064978183 -10.412463834787125
A -3.614480707083723 -10.839069880633708 12.71010076924504
A 2.0812811694665223 -11.626451547407887 -14.04403656094958
A -1.905368428797737 -9.5287849089482446 -10.897917262366933
A -3.0605935006002984 -11.147103572988282 14.689687955672614
A -2.8417188246397189 15.050539728770802 -9.2081190613778947
A 0.25382202805672505 12.057377054333404 11.994233813616329
A -0.06200072653925965 -8.0749885339304495 -11.453682851735389
A 3.6779774129704443 -7.9279274798731176 10.300245063730282
A 2.0493947737202114 13.873187606743755 10.812780215488264
A 2.3096641887372868 -10.682357333040787 7.9435758205064557
A 4.5402695194530525 -12.47859867282455 -14.89944997710526
A -2.0675795019814664 -9.6243650166834307 14.443259125213448
A -2.7138706059274273 -12.32376114228928 -8.4243093473739989
A 4.0033202998788191 -12.076541035820702 -9.8718725786789587
A 3.9826935391311973 -10.457694604726125 -12.833770751106233
A 3.4154781578118976 -13.727301889517982 -13.062953130800862
A 6.4821066776579963 -12.147764293440389 -11.240911740518635
A 3.4678616055771285 -10.062360926595787 -10.924468860274082
A 4.2162309466549832 -9.1323266679389263 13.778916527305027
A 3.7216855773088779 -11.60068618709143 -11.671789043252344
A 7.2599297910449252 -11.648472455573749 -13.788422608562678
A 5.8886339526803209 -10.441046081441728 -11.017901847806186
A 4.9168604567596192 -7.6926693133219075 -8.8582433096941191
A 5.0446789907489231 -7.5565632465666388 -13.4162048208348
A 10.517481998524177 -8.6544346309856799 -13.685990270978939
A 4.4759029318015671 -8.7497868786519941 -13.863671186492786
A 4.3935860456713396 -10.517459898108372 -13.902796295588821
A 9.1702871763930318 -8.0697947330541755 13.943165831243341
A 6.363853496352025 -8.4845155511696628 15.077753789924726
A 5.0850064394320444 -7.0011698997481497 15.062345113909037
A 13.137937840238076 -12.813487686817041 11.210239316935175
A 6.9898865789375506 -10.850217777224483 -14.948996409823165
A 8.8757611139265098 -12.868854428412231 -13.957942744732396
A 13.268204131024468 -11.954778688182783 9.3941496019321615
A 13.413592993389116 -10.663370576568386 -7.8264449532221985
A 9.7800436100757473 -14.814493720816714 -10.294543169434752
A -14.088954305741279 -9.6507218166860529 12.997888891880955
A -13.869364236191451 -11.652043285442275 -13.988294014361314
A -15.040699535716461 -8.8794931734540086 -13.142545875446833
A -13.650580866587555 14.879344683875811 -11.447189148800527
A 14.111683453211278 -10.484744591874618 -14.764040320877236
A -14.613023035256051 -9.7707843575820217 11.926745410305939
A 14.303261361403214 -8.2172039768395422 11.899377719151651
A 13.996833213780677 -3.3374307491447075 12.635348361720245
A 8.1703004969379229 -11.233579283440648 -10.764367331677816
A -13.377850697673875 -9.7355212838455127 -14.269967572812888
A -8.0432572979308326 -9.4395272810130333 -9.6739550942480204
A -10.408662412964112 -10.871941825354078 -11.938410040296169
A 9.8446475586120616 -11.991713884335994 13.081352581386815
A -12.163844111581238 -10.654767863115973 -13.95525274637534
A -9.4672134423577177 -12.268615912840579 -10.330339061486137
A -10.625329597239343 -9.2014462570904563 14.617748477083952
A -11.198824552534431 -10.906850823858509 -11.229200299252842
A -9.9207451547967072 -11.019367489052494 12.677926064089961
A -8.0659538078084676 -10.644912173488276 -10.46236514341496
A -5.1429544098717335 -8.3996352548321678 -9.4944194742883159
A -0.5727854102283465 -13.773649356903608 -12.046583122974779
A -7.9232768372248064 -13.951554558122652 14.102874696965461
A -6.0519804082464779 -10.102680142754258 14.848594980705089
A -6.6769905871975803 -13.561820016015378 14.825255163778472
A -5.3190269635934087 -13.354718385743995 -9.0581277921814678
A -3.3390585707896707 -11.471771092732558 -14.350299984596255
A 0.38408490947846252 -13.393544682177968 -9.0502728690197465
A 1.9812456861957854 -11.872953351627832 -11.159851535791297
A -7.2650456670237302 -9.7776649224920487 -14.208836628787045
A -2.6327939422644384 -9.5401554711563872 -14.320296016616561
A -1.5102693584052174 -9.9409427275692686 -12.356065733011734
A -4.1108711041965895 -11.439526546676598 -11.874565354398644
A 3.4024836061021149 -8.6093952184242575 9.0432442705530729
A -0.6992421470170419 -10.800517472057058 13.351776665051341
A -1.0194854514369396 -11.844184191836687 -7.8298020781129321
A 0.48610599089179884 -4.5795876699242148 -10.087684276979463
A 2.9718396550649531 -13.044925209001775 -13.842751790872688
A -7.5263445201131738 -13.128443538086177 13.593966427162568
A 0.076724979843744073 -7.0519896706752965 -13.94453525985899
A -0.68828795499215856 -9.041389234433284 -14.87436486681097
A 0.056207356982192348 -3.4599274295214064 12.356802595521293
A -0.99899413632436207 -10.804589482560088 11.512912157796233
A 2.5944341610398816 -9.9286737752893117 9.7168095209482477
A -1.9600778776132168 -0.92503279492305424 -14.556559580668344
A 1.7089710707893422 -13.419536640789291 -10.292518588151928
A 3.2579770862443773 -3.2442203387071027 -12.846364443551158
A 6.5951600200707601 -8.100684775940838 -12.674997709242904
A 1.5475220045327553 -6.852754264432023 -6.1247347915412975
A 1.3733954544263445 -8.6272857379954804 14.632267316425867
A 1.1229180084283188 -3.9378232201796957 12.46667643257287
A -2.6357634940231831 -8.4200817659364979 -10.476474910202802
A 3.3770156150156883 -9.7656743649149149 10.969272330173203
A 2.770454649293761 -11.531028972250823 -11.980006882628022
A 4.7934851714856377 -7.3353010270884855 -11.900392695586914
A 13.600965515362711 -5.7207609253193761 14.008805259349629
A 5.0896082803346356 -6.9993316180760941 11.74200152247335
A 7.9453563045392297 -8.1049328360710717 -14.007665698340903
A 9.9167559131375018 -11.854587984834472 -13.577200817277907
A 10.936863371730894 -4.9245892612620183 -9.0091884277412735
A 10.111243047219288 -11.032889263288592 -14.152152450759145
A 10.451999734044511 -10.95118301793177 10.396770272857619
A 13.669074847831117 -9.2929228691228953 11.251537140351164
A 10.589249242544117 -10.70227446697986 -12.203400123207516
A 12.028690319578192 -2.9262959655263066 -8.1742303081369219
A 12.588775850818267 -10.881196282171597 -12.360351105256367
A -12.482930788919882 -8.4295503168704879 11.992159353752148
A 11.822441905619909 -8.9715464179636282 -13.439482705515063
A 11.03610748778849 -7.9659027992528255 14.25707198847228
A 12.803935645656969 -10.224551791606613 -11.399624454844604
A 14.984892628229506 -3.1491015001354805 11.216129406527928
A 6.4831009527806298 -13.383574863279813 12.197088281290521
A 11.573794456779272 -9.6763166225136281 -9.9618546905279501
A -14.566025492513198 13.774542677292846 9.0697678772996948
A 13.927160524589278 -12.208297353538368 11.741683119096258
A -13.032843619850293 -3.9981481507434675 -11.282126058298877
A 9.8224375185577983 -7.9174577658564163 -13.894445124817754
A -8.8729746960833094 -8.1632640841400956 15.029641306813133
A -14.340256666776533 -1.0315876657042091 -9.7671936368875585
A 14.754432118269637 -2.0746563354106478 -14.801609652233669
A 12.093853337188994 -8.7170850991417286 -9.9324470596043462
A -12.707816006385903 -3.1267501412920877 -13.605468549418596
A -11.045609579952256 -9.4498739451851534 12.735026890646727
A -9.5902737373882196 -9.9176597616677569 12.7357429759677
A -8.8531626679636375 -3.8379889031413561 14.849210169209478
A 14.446298139094628 -7.3900412673343148 -12.66938545615518
A -11.587216227037661 -9.9208976368109951 -14.40019004992747
A -9.9572163790185808 -4.8046788853110334 -13.07360140624715
A -10.041215845928166 -11.618377766544043 -13.726439319019411
A -13.283894353088282 -6.382130891036943 -6.969189282478248
A -9.2608582605257901 -10.571996155729128 -14.64878466951766
A -9.0747718390037235 -7.972724604391793 -7.6336173250012989
A -6.3552630586627474 -8.3814111625212675 -12.819711641290345
A -6.1412244067303066 -14.048283163815032 -14.595625066296945
A -10.762129585552071 -10.644532148219856 -13.72909342393943
A -4.6576411784758331 -5.693120948403779 -14.727436809262347
A -5.590833384945836 -11.99715778060177 -8.6684181282951798
A -6.5431252983405983 -4.1481026727835877 -11.147746224635137
A -6.3919678380783242 -7.5968979112047252 -13.87117992666863
A -6.3477825738114904 -10.831586280001291 -14.341384319853644
A -5.0910151870156559 -7.7964813333390195 15.067844003602074
A -8.0433052248944676 -8.2152588199543288 14.267249768733897
A -3.4356080206415349 -6.8197473489817915 -9.9058631961669938
A -4.8719501070519522 -7.9427171922993276 -7.7195341476508892
A -3.8587579042066555 -14.376815630795686 -8.6702099606440424
A -5.6894599800772827 -8.4614394250429505 -10.383721924106192
A -3.0816830484460396 -9.42636157549628 -13.315035558190091
A -1.1786193763950898 -8.8845072378992356 -12.591500134580562
A 5.3158089555901906 -9.5341269396080079 -12.858483731817753
A 1.4321230661636188 -5.1707387146525177 -9.8140510740670486
A -2.554439620927599 -4.8896469420246182 12.856594191544426
A 1.7820496482183565 -8.8656667333688759 -10.591641961320535
A -4.5279929729005692 -7.2343649888931507 -13.427973331905912
A -0.7173235435573917 -7.145648339111391 -14.634379357783615
A 1.4125298062187475 -7.8041919163578699 12.976707524535843
A -0.079193871982100955 -1.7410956096564474 14.419456648534236
A 0.07591881907521271 -7.0989946923885068 -10.916084620137392
A 2.5966816682256306 -0.57511178667376006 -11.653645254138468
A 7.5286222875151578 -9.5091141027327506 -14.086426689014772
A -1.0523461059765535 -13.469391432804349 -12.959257783873646
A 3.5268455032793589 -11.775868893759121 -12.637868150616569
A -0.946888130077847 -4.2778831623613387 -13.303450823575178
A 0.6492183278290935 -11.576053431649841 10.766686019952239
A -0.24858689562618957 -2.9295542019705794 -12.382702465310601
A 3.0715673251989557 -7.6180462620923111 13.245642304864516
A -0.46898786157772371 -9.7071813631090258 -12.655498472188862
A 4.7021509998871984 -11.184639726118807 -13.189762416859427
A 3.0027452175997942 -6.5143738971351812 -14.96378168202976
A 4.1144002464980716 -10.87702602357971 12.92014785951042
A 7.6975634355647626 -5.0270298699597653 -14.04531954859574
A 13.333726618109282 -10.192429019149351 11.919927806225367
A 6.3747862245343727 -7.0261120801366195 12.325465041124524
A 7.1624498546703599 -7.8661009902417467 -14.878407913485388
A 6.320275949586275 -7.9241881914466346 -13.646118222052442
A -14.542153199490876 -7.9242845150391039 -12.537436790018857
A 11.812159128113283 -5.4337223954416052 10.872855834271194
A 8.1918794521078837 -4.1941695467656332 -14.380705440861002
A 8.9420964173079884 -6.8511311639402779 -14.789475429610881
A 7.6078168243085527 -12.850454206024883 11.895399461461727
A 9.7165577217514905 -9.2382881817379623 14.233285303052751
A 5.8466502539459411 -6.562720273810255 14.573167394200675
A 7.4200798409394837 -7.5673423211865103 14.189359927042501
A -14.502150656666009 -8.2026372117216777 12.677361544401704
A 7.9664349468014786 -3.6657700347506821 -13.50897766312767
A 13.452957488285442 -0.46250898127325502 -13.506209192205953
A -14.186020780706583 -8.1922097800487776 -9.686972771537059
A 12.786944488612999 -7.3549028468696926 14.269538021160319
A -12.745941439270064 -7.5343402793029366 -13.480443295369003
A 13.978280070669244 0.48916476941947828 -8.2984526599836794
A -9.9379151141050013 -6.7111652281926952 -14.072232653507307
A 14.409906653599563 -4.2622046331439565 -11.054896164235208
A -11.816010392311922 -2.7919348417334011 -14.3055180585198
A 14.668417965860844 -0.7634478647030345 -12.456167195817809
A 14.56494319695287 -1.9010560085670896 -12.038809272782709
A -12.44027540892108 -7.6490057959671738 13.384630835907728
A 11.513915821554457 -8.6443327513468713 14.911902087449658
A -14.989502258556293 -6.5552185290121807 -13.952882416692724
A -13.786743080957011 -7.4219266792345406 -12.959925868704429
A -8.0305916228912313 -2.2649704695188722 14.588594234947948
A -11.736641985989264 -6.4739123593224104 -11.082835099603146
A -12.893945995359404 -6.9396406661743368 -12.399621918410988
A -8.5203156397700166 -9.2324870546225615 -14.060096972097796
A -7.0849651683425323 -10.274749329763115 15.012928951171734
A -6.6734691494379952 -9.3785094055961409 14.488975684461927
A -6.3795776549107641 1.697023972833605 -12.805801748828548
A -6.4982582398705437 -6.6459462796899196 -9.7527506907044614
A -8.2894232308366487 -5.6847688769100762 -14.918903547749416
A -10.733548730646413 -13.028608295680639 -13.819233167254703
A -6.9325140733920749 -7.245237641223401 7.7612694865085867
A -4.6371261615208184 -11.252751520388532 -10.663980883010282
A -5.8739401939931 -6.4275138699294212 12.375543973363436
A -7.5165032542037498 -10.889408436278639 12.507950549703242
A -8.7024377506239912 -10.210096485600351 -13.780469894595537
A -7.9037492712066459 -7.4245390098941044 -12.837910069781014
A -5.0125333395189342 -3.4148806578752966 -6.414258597340103
A -4.7095300536905951 0.28353434437793407 -14.588826800315356
A -5.4185122139671851 -10.455651337237764 -12.448583734622543
A -10.915118727809482 -5.1544948236126409 -12.945708845917615
A -5.5698457673667559 -9.733583899303639 -9.5169288842261412
A -1.0897008324744148 -1.6210544657847572 14.309005507104578
A -0.87036758699999384 2.0106512218305483 14.234213047550465
A -4.0565863848876305 -7.3233867181533743 -7.1121761434488677
A 0.73989638454503448 -7.8226946056811357 -9.6381955060528348
A -2.226211167789288 0.9717448294341291 3.6995980074826291
A -0.5232959461228468 -5.7650121385554858 13.999445023391143
A 2.4334626742143914 -7.8243403237774842 -6.9937720629242808
A -2.7040246282869664 -3.6593831294839863 -12.730941494342082
A -0.74868182060411981 -6.5433634313813975 -13.283787485207146
A 5.0957846336439925 -5.8097814236638223 14.735230096899636
A -0.62329818035906104 -11.723687071217626 -10.456650343128315
A 2.1288923886217788 -4.2164911015763771 -13.180455966559723
A 3.6833126531971008 -14.520937135718176 -12.349815605316858
A 2.890831290819857 -7.3590953687702658 -13.077532214020287
A 5.8541239201555211 -1.8809972694785115 -14.183078338217399
A 3.6208977469671018 -2.8307021267484842 15.037409536394414
A -0.14591539641204493 -10.343269351106722 -14.797008838538963
A 6.1990989026933958 -4.9332142488707946 -13.374817771022329
A 4.3417910231605346 -9.655123579483055 9.3586736115735096
A 11.03987893309726 -6.8777318936971819 13.333531932143254
A 6.4938668069614334 -5.4891102486213246 14.392698612831618
A 4.4786948255696144 -2.4072131319948462 -11.341717188448714
A 11.012946288347829 -9.3703090265420883 12.655059792265757
A 6.6405453481613117 -0.86780575385641001 9.1582954355255453
A 13.358332830126058 -3.9929137646977084 13.080931997683491
A 9.6548390020887922 -4.5417478238192421 13.599086336981854
A 13.392218544952909 -5.0655139431256107 -10.212721612489615
A 3.8124346367408837 -6.8377257868274413 11.402006890911657
A 4.4102944396250168 -8.5718418518323265 10.589442855562531
A 5.692015235544261 -8.5999407724752288 -14.308073032894807
A 13.212926106634718 -0.72970620201274394 -8.0612921720948236
A 10.534991558922496 -7.0903283581448662 14.57417061830229
A 6.8459325341168533 -0.66766949992703306 -13.579632702391681
A 13.766751749061788 -6.9074537943495544 14.342880299590075
A 13.839985081667294 -4.7310720520697345 13.669997851233669
A 6.0202346857560816 -3.0919123858335236 -14.346236167964181
A -10.600308623202899 -5.7401294280414579 -13.78970071823265
A 6.5732917801893489 -2.3812569214079997 14.017672623159498
A 5.6355596158830341 -10.759723524613285 13.22495685908614
A 11.852967159599739 -6.1126387500648862 13.49901643758864
A -14.344876016260509 -14.123920467845345 -12.889691261401602
A -13.5445377733806 -7.1224295763029311 13.265675824387587
A -15.073857980191681 -4.2310861296281059 -10.092749980260757
A -13.197617629274815 0.033477157411275348 10.642513417826384
A -11.657550339260492 -2.1300841770602923 -10.477882017573798
A -9.505596950338596 0.28544452150046562 -6.0988095909521158
A 12.662098577447381 -1.9911537340229148 -8.3002038866230379
A -11.941623140661692 -1.5117992904223208 14.510331410597587
A -14.18280276920756 -7.1406542109367352 -10.562595526925556
A -8.7416593931621165 -2.6752142410542006 -11.452574035694996
A -9.8080401300785383 -11.147127496566364 -12.865877603699365
A -14.420374634712323 3.7451880882539346 -11.707241557871141
A -9.4884710892439266 2.9658854411839619 -14.604806749386352
A -10.122915194501999 -8.826715615108359 13.615207871255535
A -10.467959188010672 -3.2240716443191957 -13.881495893893067
A -9.9491280266475179 -6.6243303570441325 14.268020928059856
A -13.274585666401679 -1.6742734954591176 -13.605908036846063
A -7.2410863415297797 -11.383327200271351 -10.755106371261762
A -7.5774911477274332 -11.884571196545913 14.624902330816141
A -6.7831536589050438 -4.1374245728709678 -14.109913357129784
A -7.5168677593820963 -0.52065171744829042 12.029069298504021
A -6.295832486793036 -2.6036722271681287 13.682424150706289
A -6.7505001904696975 -5.2191415240113903 -11.30718662814839
A -4.6665773264964088 -10.051536794916284 12.386704748441927
A -5.9854818380061632 -0.98686989805260961 15.026901180197243
A -11.894145296491638 -2.6701098926145943 -12.904502444774097
A -10.14039923624181 -3.9504537835798152 13.560758007482461
A -1.4478994985165743 -1.3944527912796985 13.379487807979899
A -8.4983792196316532 -3.2058417323418067 13.766560741725117
A -3.7830352165146124 -5.5166918163586365 12.922086679676525
A -2.5334722584448119 -12.440121109893726 -12.748313856633326
A -9.5654746849387529 -3.1219361972768094 11.688087058381061
A -2.657514509578871 4.2940838178379117 14.463240583481323
A -4.3814994444884716 -0.60870204568915709 -14.245116726035464
A -8.3752205950118714 -6.7271774150502539 -11.855062758038775
A -1.6538595533189193 -6.6103274153064717 -14.999582478377834
A 2.6650945758316644 -9.4119928284460901 -10.694035985069288
A 2.2681075153068888 2.0215366260997061 14.514956141468737
A -0.64128524928325625 -3.3346306155345009 -11.436896431279449
A -1.895579974004395 -1.1199098517438257 -13.544197024172114
A -1.8950669690198381 -1.8928719132410072 -14.206127919905828
A 4.9739796058883208 -3.4605013694399145 -13.937480368159303
A 2.9172020670778305 -2.8632165178921118 -8.9928740313379283
A 1.3037731146559968 -8.8599718138966477 12.763449008365487
A -0.25773554317043129 -3.9686265518718908 14.96831709332616
A 0.93088675531844844 -1.4090311895087668 -11.448246292927564
A 1.1678704798435993 -3.4533798162640785 11.578742629957489
A 1.6986449686363458 -7.9857366665665648 -7.8316314817222681
A 5.4128262207764299 -0.77321799194691132 -9.8814526738834925
A 7.5220050967153256 -8.9492799241607059 14.716004125429807
A 1.7259130586809857 -5.946003470423924 13.527995087762928
A 2.0799536654934085 -2.867033720412659 11.393067246770675
A 5.5409730804608897 -4.7734771987189086 14.730065477380233
A 0.46400657303265691 -1.1026341285197301 10.40947111407915
A 6.2528474110827927 -5.8913703957178951 -12.670318648756842
A 3.3881263543624782 -0.84102656050954028 14.422439434434201
A 11.676085398652654 -7.9360669662735841 -13.131971601808766
A 7.0636040548867083 -2.8634177132573422 12.73065516885781
A 11.350363232835727 -5.7126343069144756 -11.456425484460715
A 6.4461464092969205 1.2395695011526029 12.936297683825035