ITEM: TIMESTEP
6
ITEM: NUMBER OF ATOMS
23328
ITEM: BOX BOUNDS pp pp pp
-15.08190489966774 15.08190489966774
-15.08190489966774 15.08190489966774
-15.08190489966774 15.08190489966774
ITEM: ATOMS type x y z
A 11.209456488426021 13.14322427503868 -12.230029609663768
A -10.428619115900515 -14.693406379347955 12.173057771244109
A 9.4722648738000021 -11.717346833487388 -15.00992050910919
A -12.311617541200887 11.349605155319964 11.769843604488818
A -13.629098342827888 -11.537289373642922 11.661429049387044
A 13.006049966102134 -12.823353322264646 14.889876272217659
A -14.935799209546374 -14.443988189783475 13.702134530736384
A 14.898292547609833 14.274563931579799 12.675543704140061
A -13.66116229224532 -9.9177878734959588 -10.701857609013651
A -13.80309352320584 -11.002261631112667 14.259703481428705
A -12.58122007649148 -12.002776301891384 -12.540531544893694
A -7.3039365386485784 13.637352326137925 14.212127826209782
A -7.9423463620156349 -10.209944725377259 13.040531490188037
A -7.8407293431022334 13.359076242012922 -8.9834159724225859
A -10.173575708605556 -9.9307962487754953 -11.680478920937189
A -6.5967594572678934 -13.141410975780156 -10.16546787116226
A -8.5483157819140594 -14.450801304482161 10.297895113890799
A -8.8177704154292496 -12.914336611798307 -12.581315648527937
A -11.823262914461591 14.675873858953596 -10.211972189043703
A 11.470506378839389 14.095824563946106 -11.858303760954101
A -5.8260872756961595 13.575871475441193 14.044461728112388
A -13.233102227645132 -9.7546611673964776 12.2535729678516
A -11.709782361144221 -11.652763383173461 -13.897202666145652
A -2.8971366379541692 14.188327988952214 13.988884805492154
A -7.104983380848199 -13.883384168354752 -14.962129936995943
A -4.8376592036629651 -10.564255475135012 -9.1309405777451147
A 1.0954891493675889 -14.34637676550096 14.445639605053607
A -4.4832252491048656 14.089381074902569 -14.09872628639479
A 0.53116731720614041 14.211492946223434 13.150816694643634
A -0.5766740119559175 -10.549578803420497 -14.195361674634251
A -3.6608480103304069 12.768928975323922 -14.704102884960976
A -0.83865262624706127 8.6589384538445895 -10.567701657043951
A -0.62866063751164913 8.6143436917796041 11.932666954861531
A -3.456149816321866 14.441391655545196 13.093014622680229
A -0.20247342020651246 8.842976552834962 -12.412218355229617
A -0.54806267117167928 14.980218769124074 14.975764401768666
A 2.1766583568805786 -9.2547656423726252 9.8574167294796791
A 2.8508702950330553 13.506750663666658 12.743846858474035
A -4.8629574440960388 -11.630146294686089 -13.588816592734888
A 4.3284912586378015 12.503515207692921 -11.604740303840321
A 0.62531266354870307 13.687549329718131 -10.63190644393616
A 2.6232314868121742 14.166777221749252 -10.730290324326685
A 7.6268153394582923 -14.914803978713138 -4.9662670393487431
A -1.4053957007175502 12.372999450810831 -12.063563383237121
A 7.6880382318372753 9.1341276904756938 -12.491433673540435
A 4.2629098247230273 -11.727264035829009 12.080090892747043
A -2.6741605259899721 -10.347786380989646 -10.279062983991667
A 1.5457149960676972 12.109634345802867 13.580952518780752
A 7.0488539427360797 10.145843199376902 -12.212640580546333
A 6.255703192322013 -14.806362352147726 -13.440493339067768
A 8.7411806913033665 -11.786523308155793 13.261367862514041
A 8.3947543061643533 -14.963550132537168 -13.717478685226991
A 2.7364170002878807 -11.93507526517538 -12.282794633639616
A 9.9842146955773892 -12.090018291146825 -11.213383726184736
A 7.3190689934441133 -12.753548579833581 -12.019902248855686
A 8.67595563083683 -11.622116525192524 9.472428725359741
A -14.773154149677209 14.850455784467327 9.2434199515604174
A 6.5555689263969015 -12.707546233361411 -14.604284245498221
A 8.9672691190981695 12.594792477589614 -12.884006741774055
A 7.2462096086405179 13.847820203216676 -11.809268099247284
A 11.790520541131569 -6.2051984980791257 11.937623101303103
A -14.839414753826659 -13.676121580343837 12.973471055129664
A 11.204943821463038 15.054746165556777 -12.184647297733143
A 5.8885636388422373 -7.8527157974302337 -13.319313650820233
A 13.413993097058695 -12.352894770678688 -12.343792662642173
A 12.720117530913349 12.146545030579009 14.643526408820495
A 14.710787308900297 -5.5264309809477687 12.413047325029652
A 6.3609620509492979 -13.433449561774077 -9.1942494694913819
A -14.429621530406029 12.467833867818864 13.030351261908816
A 10.998986724418282 12.471889767617105 -10.076612218311416
A 13.439216442495031 -8.1988002816535399 12.382218232940801
A 8.1770552342682983 -11.229464096246273 -13.604400473394072
A 13.144339973141694 -13.641539889205495 -11.963216077779135
A -12.063323232027944 -12.349868500571683 12.320583847993479
A -13.941032500687284 -11.165351936829005 -12.968614615936115
A 14.647041756628372 -13.653905305839228 14.946146728628145
A 14.187409719812109 -5.227775781804195 -10.014224798890107
A 8.8657258396949779 12.873753957496321 -13.896959545799575
A -12.245217861542132 -13.31817812454765 -10.916605200825295
A 14.312828173762139 13.909954305940266 -12.837157542512651
A -10.173210529095297 10.467962292056729 13.695532579244867
A -5.123238426861942 -7.3693567864344516 -11.182565650211144
A 14.556786006945886 -10.525429677633221 -11.749196780408813
A -7.7499971290650844 -14.65213036202206 11.364355988407986
A -8.3189269248998059 14.316189529796327 -13.916340685955479
A -10.130004860967288 -8.5491260553542396 -14.256730089846922
A -7.9715430174747937 -7.5241785115355713 -13.199379959723895
A -5.6471774516540201 -12.706066315031933 12.464615592717276
A -8.296418547022645 -8.4245469701011615 -12.734511576046865
A -10.190235273143591 -13.685620140294613 -12.073701868287246
A -2.3414491230303631 -12.380792736924853 -6.801881844382951
A -8.5633770539268088 14.223869036421506 -4.4201648563831002
A -8.6003556656511027 -13.350258204917385 12.767539853167085
A -8.7364246340438179 11.937417656572846 13.230310878942493
A -13.457523736332657 -14.025008896995651 -13.263990691877263
A -4.4800899639804497 -12.808218395992602 -11.841323550049092
A -2.1408060362205941 -11.355994097482572 7.9698274134394689
A -7.9339575423616804 13.50110765330421 -10.62406243321897
A -1.594457067191041 -11.190960490035847 -10.306292570074463
A -7.0702080989537262 13.859600191888163 12.425654437286074
A -6.5178753557651063 -12.770622999667973 13.09195803548848
A -3.3456134467390704 -13.426763746261102 -14.635301673333831
A -0.83939209444298002 -10.220844248798288 -12.959180257947676
A -2.9339070726908534 13.043439523709258 -11.37676056474259
A -3.9559463358676634 -14.302367424636728 -14.902635173433477
A 2.5206312610145032 -8.0674162199491661 -10.397998291190454
A 0.64719569822352097 -12.058335292736823 -13.794711878048304
A -3.5030426542427286 -4.579832118295875 -12.53832754711128
A -6.3604758114747106 -11.716337672975087 9.6573654421145303
A -4.1955397229452869 13.79787118058184 11.244204576748015
A -0.78739314864860532 -14.941914928964721 -14.008648682279224
A 2.3097903906941593 10.365275653668231 -8.3945812396253654
A 1.08224991897487 11.908435361708323 9.4335090459051525
A 2.042035087633395 -14.131860685073221 -13.608496747571975
A 3.4351880068808485 -13.827324874954598 13.29422957314012
A 6.1406962733669452 13.981962181667477 -8.6480831346378615
A 4.3654541208721094 -14.280314989749023 -14.958752723656628
A 1.7981431925577522 -10.96431620624308 -12.442030926292242
A 1.4378592676545636 -10.081652525984733 12.529992174595606
A 1.6117916970957147 -10.147278710021581 -14.632366437246903
A 11.969628585732874 -9.1939324309886459 9.3227736170896538
A 2.2933069705310261 -6.2061338702579594 -7.3937271471429318
A -0.56238476503740598 -8.8146161625282424 -14.839260217894983
A 5.0041110512533979 -15.008569503258805 14.234225374201335
A 9.2177590062048491 14.976811577068633 -6.3675509708407771
A 11.034986658962628 -13.911175097924408 -14.047324444654357
A 7.5909197790659642 -13.540975587258341 -12.820856541446101
A 8.3851686310016618 -7.3489840427719395 -10.193501752892251
A 8.527257089606568 -10.17529214078861 -9.463290716567796
A -14.682358102096909 -7.7323961719214731 -13.149655396332607
A 3.9881724569117183 13.212017209712977 13.217456109926065
A 7.6778105413247619 14.943162325232839 14.101664149147293
A 13.398768487470214 14.512028748830655 12.944047740586116
A 14.88615409331741 -7.7683043778668806 -12.261302510591285
A 13.843078658674367 14.105429136246553 11.586000741311128
A 3.7307591247746514 -11.375224638128802 -14.908531046432865
A 11.193419541884841 -13.928512323730592 13.020971674513302
A 10.933915995369979 14.54657920523182 12.371123026518198
A 13.353596849845077 -8.6983091682306508 -12.467578518110509
A 12.303151931007545 -8.8128722302042366 -12.653330091062138
A -14.587820131929433 12.747087602597986 9.7053001629705129
A -13.431977622208521 -10.879079961809605 -10.980715585975435
A 12.802851235529154 -14.802798572143885 -10.182714886409066
A -9.8657227459033336 -11.588687932600685 -12.232083581388448
A 12.831278749067746 14.402176636371378 11.449893325188409
A -11.427786509298166 -9.4476157437697328 -12.099367380206399
A 10.535631292682119 -5.9962748480526571 -10.098566755715746
A -12.273967397517701 -12.279825729043427 13.773719687459732
A 13.316912126807686 -10.696672815796907 -11.657670317735903
A -10.18592998686416 -7.7303566232154655 -13.151542539421021
A 14.587946662358307 -9.7646814548869276 13.421661558138648
A -5.5613692953341776 -10.868605255259112 -10.949733376881895
A 14.824361098856643 -7.0203698874828691 14.910976681474395
A -8.5831151874619369 -8.493406210884503 -10.997334706385116
A -11.657986440993758 -6.7828339117378595 13.48907441347381
A -8.8077368358046382 -7.3917005960898754 -7.4339668466283051
A -4.3329259939083817 13.527734721526397 -14.950709573885197
A -5.035077555329269 -13.50863750363785 -12.4302743493266
A -9.2100399175495191 -11.227667179837908 -13.990854420735035
A -9.126176978153083 -6.9115579196967412 -11.816584078979433
A -6.9123417960272766 -14.343711218413407 -12.083267016682623
A -9.8253455797516303 -12.727408565183058 -12.897545870989187
A -6.9792262639911398 -10.365995159690305 -10.675440494509402
A -3.4507115107404025 14.988129129162795 14.286976291134055
A -4.8325573452489241 -12.496626245576278 -9.4711319896880841
A -1.2198933124513689 -13.071870655272857 -8.5551434739610759
A -7.79893272737191 -4.0453307403994447 -11.576619411390977
A -4.3032744999337833 -11.477893531822472 -14.463564871420669
A -2.9982067604671667 -10.343801221747638 14.513055346958849
A -4.789691427879319 15.01580902059456 -10.899812686519708
A -4.9874444465307102 -9.8058015497654232 -13.530406489345072
A -2.5899648932457193 -13.342024872764314 -12.330616911985262
A 2.9032265262674586 -10.176381881171251 -8.7287046228319607
A -2.4725646492846054 -13.16428907760241 -7.4414502807765972
A -9.540205139954427 -14.401891213955876 -12.390479740461361
A -2.8951798443690251 -10.307063228594885 10.700317392989023
A 2.2210481134880937 -11.297761851541066 -14.391473552757738
A -2.9929435291347968 -10.14528747357361 -12.46103635334198
A -4.9529810348389969 -11.316238091789426 13.770466019471799
A -2.5558348950282572 13.439293788108396 -9.0791372493624873
A -0.13944232115227248 12.686933673844047 10.766062926486986
A -0.19333195458139418 -7.9501819499880604 -11.357580300524527
A 4.1803411918045628 -8.6971894905183351 9.8440551113166244
A 0.92871270160826735 14.751714974845118 10.977235270563106
A 2.5574265526760862 -10.671235122395675 6.6131707603474439
A 4.2327294203211236 -11.823864392535747 -13.667723464779563
A -2.3287410723645823 -9.4074372814262937 14.100820567729478
A -1.9422889334877607 -12.354500954093222 -7.79005185345504
A 4.3947130884589196 -12.728063558782015 -9.3392613848577071
A 3.2837167285035895 -10.323738788049946 -13.310269140036418
A 2.0313138086299798 -14.483637380238433 -12.57013044299376
A 6.2208158037840358 -11.451493540195251 -12.631170135104115
A 3.164192561625105 -9.4435400975398665 -11.508690118382692
A 4.7938221155582923 -9.5232539639369822 14.076807728605957
A 3.6847292470205151 -11.42313072599959 -11.695316876670214
A 7.1635710485559478 -11.405521332648096 -13.498520159666542
A 5.0478446380992334 -9.728666478494457 -11.874782138703251
A 4.7014478514107125 -8.3629840751624638 -8.2589421452794021
A 6.2572130389673157 -6.8296553036212391 -13.373693438974488
A 11.191399432145808 -9.710124732973064 -14.61956215648663
A 4.8616602663259973 -9.7065627194328332 -15.045280317958548
A 4.8889655867923025 -9.8799989059443281 -12.958411536754854
A 10.378252687994655 -8.3383042575251523 14.642425107397267
A 7.6704672546746284 -8.6189790793830685 14.427461075827676
A 3.9187099296086103 -8.3902842258836365 14.220959839836025
A 12.795122632933483 -14.026058545627068 11.067714019350355
A 7.5478966769804501 -11.204283072182447 14.851213067350185
A 9.300325463254195 -13.385495561842765 -14.475521841072174
A 14.05419111278918 -10.652056704867931 8.9831615005205752
A 13.272950253029443 -12.248884095948412 -7.9447835366660433
A 11.927223446203671 -14.370957496155212 -10.584623359034373
A -13.538617364398002 -8.1920542361375333 11.735094542152961
A -13.395878614845017 -10.52030356048674 -14.802707354874409
A 14.901074459347138 -8.4412250875687391 -13.983611096587316
A -13.812323560266575 14.720715743188046 -12.293374142276138
A 13.752702710471116 -11.872886545566354 -14.888791910772108
A 14.166424463656984 -9.7592874508509055 12.253710360317099
A 14.122035297684326 -7.5069080778787596 11.089195363784164
A 13.373103993465271 -3.5305884749126077 12.634863076223994
A 7.9439923922800562 -10.728447744887486 -10.158915310765485
A -13.712953818172679 -10.526601656038364 -13.730983841173309
A -7.1265351973571818 -11.174139677451278 -9.1069474869195748
A -11.348967688424983 -10.598596269805039 -12.43611988295412
A 9.8726024818782481 -12.04764213832118 13.293429434102055
A -13.46234776003296 -12.139520309048487 -13.230714874002279
A -8.9779548892142191 -12.442544727372264 -9.8978486917243451
A -9.9869099498784575 -8.9536746708058228 13.49552491238116
A -11.53141088584907 -11.329418066903456 -11.57033644166402
A -8.3049004614755937 -10.459204600031805 14.204412929688033
A -7.9834055609052159 -10.307556953816745 -10.8065856016692
A -6.2414408103785481 -8.2930550265195304 -9.4851421406716696
A -2.1495491950325354 -14.95465422826071 -11.253144196308991
A -7.8769830470498867 -13.681714962949815 14.489117817344113
A -4.8673938086177593 -9.3795424924208248 -14.663127550827868
A -7.2873152853301679 -12.920642786498499 14.787401353447176
A -4.7122565747025424 -13.330634915398893 -10.094579290708698
A -3.2198825429786226 -11.767741645226588 -14.9123762901618
A 0.74424028595118519 14.850490034686594 -9.7378091495322074
A 1.0413906715731789 -12.369476651315063 -10.239607663510128
A -8.5135303827152029 -9.5637200943554532 15.011838695989216
A -4.1914989958151549 -10.386671695444852 -14.821290050006251
A -2.1751568656728857 -10.683383928075498 -13.031866029273646
A -3.5018031647900303 -11.52350691619001 -10.155516429104338
A 2.5226017081912233 -8.2590624743029668 9.5280801543651474
A -1.0032606461659852 -10.282129791610823 14.005966230735764
A -0.79255186757257756 -12.397831957309082 -7.9109573178655186
A -0.42301781569207259 -3.7205235518087076 -9.615875893168587
A 1.9337336895782702 -13.330887969031206 -14.277811631951563
A -6.8869761923441484 -12.371992831554017 13.968717203221098
A -0.16045256069745181 -7.1441234803096663 -13.482266931804704
A -2.0871867161168063 -10.494293989304145 14.103039504531946
A -0.99856252748900687 -3.4158729334238465 12.063651058876472
A -1.910581985637096 -10.22564162890553 10.394130340764294
A 1.6268785160727 -10.478255499944932 10.502210916147719
A -1.7287154994567702 -0.90893003868204736 -14.927266190402767
A 2.8057089322699102 -13.092808434501064 -11.101876966144919
A 2.7337602445236224 -3.7681966420363455 -12.166473609673274
A 6.7937031054379409 -7.5778391578996693 -12.912530090403179
A 2.8130942579338067 -7.5943055229392042 -5.9816673399211053
A 0.92857241136425372 -9.4761868798327207 15.04853635623088
A 0.98318059318451667 -3.7697827038558462 12.917463455504356
A -2.4092545889351555 -8.5940148267812315 -11.50077672488097
A 2.4197101304447499 -10.451302445873191 9.8811407382131353
A 2.6570372183127282 -10.358005854504015 -12.395398379510393
A 4.6455707682663965 -6.7143200786907231 -11.285317613569413
A 13.898217713267272 -5.1472928823625255 13.082609856707579
A 4.8893227519247722 -6.8499388216302384 12.650004774031114
A 8.1760624517965521 -8.971301233917865 -13.546735711843361
A 8.9301223906021043 -13.857658985803946 -13.584124702701589
A 10.775791811812482 -4.9488736731813008 -10.040408410324213
A 10.111714857998516 -11.774902960297394 14.229965339768732
A 10.743262870070907 -11.007689373403018 9.4973829419062525
A 14.080678711658889 -8.8777047777175575 11.329340596035362
A 10.08074834113096 -10.380644822601228 -13.030676274602509
A 13.19311716444588 -2.7370965019455431 -8.6006866037183851
A 12.465479143797793 -11.973280370087137 -12.988638956267389
A -11.515524976456369 -7.2727983897655042 11.924963850348645
A 12.049863311175642 -9.2836775382724124 -15.048924654793423
A 11.280632549431221 -8.6001351760592595 15.044729825344321
A 11.684350470048262 -9.5854268935938975 -12.03442150695547
A -14.043949797708452 -3.4144980123477464 12.194251913934023
A 5.5089933623311733 -13.225668054994912 11.985749964172051
A 11.976970696582622 -8.7928632863075915 -10.887629307812656
A 14.551977578049522 14.013225001340334 8.8629085615821843
A 14.280770106385937 -11.249903155205988 11.944588832404417
A -13.999945051262131 -4.1583761840153128 -12.464791307353964
A 9.9169925790134954 -9.3390769581357418 -13.054572326773684
A -9.6528673055323093 -8.007798009168944 14.006912968234234
A -14.490979582191398 -0.4643208308460684 -10.48046645085801
A -15.055608168759456 -1.9650116471088366 -14.157418519801658
A 12.619731014099118 -8.3925544318559062 -11.68128613205462
A -13.273187969200766 -2.6083964818917824 14.948534858133545
A -11.467973659676897 -8.6579519246180041 12.595247617828788
A -9.7018293423571471 -9.7463942204993099 14.805939038198961
A -9.3418123695169601 -3.8849239748086393 -14.642546645962604
A 14.382735136205211 -7.4140750311328389 -13.688494988609371
A -11.7875224862736 -9.4407969118695032 -14.433831913519848
A -10.334641428632782 -2.2891827473951145 -13.01499765691327
A -9.9587662284706138 -11.524818342067931 -13.388862477089729
A -12.820939851877096 -7.1872326239801687 -5.7084855141472257
A -10.286325694974048 -11.047557497447318 -14.234023513196625
A -7.7468692672154971 -8.2990397450177777 -7.4837815591236261
A -5.8474800523292281 -9.488053421914028 -12.98852225885889
A -5.0045361504200532 -13.381362925934512 -13.521720638750056
A -10.71430181147006 -10.707614489323081 -13.292426675411864
A -3.9112969871271153 -4.7000387270919166 -14.446061628896755
A -4.2265018140988859 -12.441780196729075 -8.5785644685995308
A -5.64939178243272 -4.1114918914196004 -10.665504423533843
A -7.1028260385269775 -7.9106391929518747 -13.653873249407679
A -7.1100815719647912 -11.247523948716429 -13.652571111418334
A -5.6495537742190782 -8.8513898607576103 14.954741089578894
A -9.1177914147757821 -9.0121938760202003 14.160856729979328
A -3.4088340047888632 -7.6341919374301819 -10.171333729423493
A -4.6753570615684108 -9.1929710520826564 -6.8306043605996125
A -3.8526115042753046 14.185191973184917 -7.8170706638475842
A -6.4055856252577099 -8.8475961859413648 -11.013795389423379
A -2.9262961416948192 -9.1317198948262845 -12.324164678939539
A -0.47536861003362363 -8.8924159425286895 -12.971417271472388
A 5.8937764998204871 -8.8626023428026599 -12.658015253858748
A 1.667571889395401 -3.6833600720202169 -10.865993537400927
A -2.4138089517890937 -4.7277924015214934 14.236798208078143
A 2.8411464123249437 -7.3339791626275064 -11.045682422631776
A -4.6477067207347433 -6.6129390737954248 -13.088191114102282
A -1.2147782733350274 -7.8843664517949756 -14.865275095663581
A 0.74365711937494638 -7.2042051740101494 13.514446095744734
A -0.11304243751265339 -2.0114150350684104 14.712216445811499
A 1.1273863451347608 -6.986359094488976 -11.009855137881416
A 1.8382841326061004 -0.32631952093897226 -11.598641738045531
A 7.0253866356189913 -9.3553446041242392 14.71193486515846
A -0.46752386139518254 15.0051493065726 -12.912056843714605
A 3.5938664753293819 -10.376000841219252 -11.435583496060129
A 0.179090686294607 -3.8300249234034216 -13.938976988418599
A 0.0047177163755021401 -10.59869921305012 10.938068569808625
A -0.198629673516038 -2.3446608159318383 -12.358965746052363
A 2.5602829928312216 -8.1260600019655467 12.707891549866762
A 0.22901693518851229 -9.5211144907606009 -12.102877494024179
A 4.351579693542142 -11.553464299796795 -12.445157826278473
A 2.5504726275599872 -7.030202549360526 14.64942891464581
A 5.5371229153908237 -10.508744380478884 12.323092502572804
A 7.5772179041627146 -5.1164714543405196 -13.121733641537343
A 12.189834038903122 -10.617814455300881 11.491374198416208
A 7.1753636958745615 -7.3455557857236169 11.08230970880228
A 6.9899946128803405 -8.2721974239144718 -15.054109607034377
A 6.597981757351933 -8.8733540653138867 -14.326493549887923
A -14.542602134795626 -8.4906026274695563 -12.502873996090017
A 11.635017488671677 -5.2515159778245417 12.269032604948109
A 7.9495247500985418 -4.5660920955489859 -15.004037297092578
A 8.7351308073264615 -7.4011210506188458 14.999633387766579
A 7.3731792145387489 -13.790879002592115 11.480423404257749
A 9.0011079449857601 -9.8777707199933822 13.441588739468404
A 4.9269844433848879 -7.0116554929429133 14.600317678868647
A 7.6034982122749328 -7.5965023658144881 14.404249272657825
A -13.796910535071881 -6.7060132228301059 11.946972127347635
A 7.0374897680034563 -3.2191006269352349 -13.256401861377654
A 13.185779606495142 -0.98656095804919153 -14.114028818139444
A 14.69143232569915 -8.3929486130162729 -8.7134282041754201
A 11.911582566255968 -7.4985886735841554 -15.015413826197779
A -13.987416693363235 -7.8299921624557216 -14.508510274509835
A 14.200762005920282 0.68161744580451766 -9.7898134910047911
A -11.176486438090725 -6.6650073503627141 -14.260338308584521
A 13.106542090687226 -4.1073542302621666 -13.037092252923321
A -11.75345190202532 -3.3252382712421746 -14.621039714973186
A 14.51085313736651 -2.2714008953586329 -12.470859187202819
A 13.98130413711343 -1.4033532391992245 -12.016400333769312
A -13.591113210651924 -8.786679504769479 13.763503414188889
A 11.10821827606434 -8.5805827458909594 -13.825379384528762
A 14.708447595452927 -5.0892083177553129 15.000372116489538
A -13.512890443662476 -8.7579927456204043 -14.264878032642347
A -9.0631562342797523 -2.5106166154228879 14.396853977335699
A -11.421926127108886 -6.3910230157646586 -11.537977212879685
A -13.73905980352051 -8.1476308305708933 -13.33633111950083
A -8.8436668594016652 -7.837993320851802 -13.646572692508053
A -7.7005338628768554 -10.404837455971142 -14.144133285761953
A -5.8002896527942553 -9.6987358886356656 13.770393134150479
A -6.0634243762336508 1.0867962904191941 -11.955949695794237
A -7.3670530513187451 -5.4287337472419974 -9.4057800840987085
A -8.0780633711992991 -5.340009828707486 15.056916076727653
A -11.079897209174531 -13.529433514776677 -13.591136754685712
A -7.1927212442345265 -6.9954481508760011 8.4966759719843736
A -3.8070883233852038 -12.468948389116949 -10.514951103263538
A -5.182001423628253 -5.1193231884007817 12.889338153240981
A -8.979690894979635 -10.119510037171963 12.242521878028372
A -8.6953382572875366 -9.6503568617172295 -14.102089524712973
A -9.1982281079232013 -6.909055857126094 -12.844165392603163
A -6.2779198576957125 -2.4225018375557936 -7.0645416591208461
A -5.2442248748379825 1.2683949787410995 -13.028442498365136
A -6.0990773451775251 -10.524600922765357 -12.476761075342651
A -11.66309837805723 -4.6278318049938658 -12.256700781331242
A -4.6589633939529422 -8.3574993815736605 -8.5732930925931541
A -2.0993334067023524 -1.5350588614502578 14.358787348642306
A -1.6272080718123059 2.0573430210729602 12.731581288366396
A -4.1787935290753442 -7.9441971409578649 -6.6139688786146094
A 1.3385449745277311 -8.0464478675307234 -10.151480878445033
A -1.9870756954021147 1.1460467530779257 4.2879795886674632
A -2.0397911220961844 -7.4758652505196004 13.593679558481302
A 2.8998836910729775 -8.4047836398373033 -7.055148310567632
A -2.954946616106171 -2.3930333716882384 -11.754723771514451
A -1.4815105475957251 -6.5601310564216826 -13.309795818121902
A 4.3736274435522962 -5.2684206469048291 14.267318548972941
A -0.98524023569811792 -12.489975263034371 -11.954123609085181
A 2.1367818832051846 -3.235779189880347 -14.024167015940961
A 5.4257434501760669 -14.576741417184248 -12.880689384497677
A 2.003905856666345 -6.8311660764472109 -12.531604093479633
A 5.3150023621313789 -0.12134261632470748 -14.216585399027066
A 3.5749339726968059 -2.9544863826123726 14.544458219602891
A -0.13482309193132042 -9.7384468458922768 -14.95714204115024
A 6.5253215293541968 -5.1305971923622851 -13.295808327495774
A 3.1701884810097143 -9.9894359382538536 9.0788536264474278
A 11.150171514593072 -7.5662154270725797 14.490555264035129
A 5.6421493181860836 -5.4902751446058318 14.675427431582282
A 4.217788447643132 -2.4758189488710549 -11.843915455398371
A 11.540850498082166 -9.3855127849890128 12.879626355351888
A 5.5375556612053192 -0.61570826382311039 8.1624201607886882
A 13.177172563434501 -4.5532714378765373 12.671205372008155
A 9.4439511552622353 -4.8652937355490176 13.799151004536093
A 12.19113084701201 -4.3329035410020573 -9.3592097808534689
A 3.1619166628002424 -6.6777469318299243 11.180690170189004
A 5.311066397059081 -8.4656012655499726 11.248002659750036
A 5.9561152723729442 -9.6218614081453779 -14.740587601066713
A 13.465767817919922 -1.1841203374687055 -8.7376848722471241
A 10.836833160456996 -6.8673459625066053 -14.591332182880816
A 7.1666348510655844 -0.67574364349096228 -13.420435194364956
A 14.114082329541628 -6.6781754410048668 14.233964543400043
A 14.12476077832449 -5.5485947522321757 14.197718150930857
A 4.9434390651228437 -3.5269269998794055 14.585015334069791
A -11.494674934430371 -4.9561785045705742 -13.706576012844639
A 6.175094647874249 -1.950021345666727 15.044225189974775
A 5.5975241242917795 -9.3457940878644887 13.116042067662848
A 11.980869283991533 -6.2057233225517336 13.746197402697403
A -14.837330891578183 -14.132495516319381 -13.441384575646886
A -13.90219497373972 -6.3245671818700435 13.141131940200204
A 14.569398951950401 -4.3478522353230353 -10.406500825741196
A -13.419331090882475 1.2731185041964328 10.820423644580467
A -11.518385740906631 -2.3930059902795096 -10.064323720411821
A -11.803782021566736 -0.37229326346526659 -6.4669727164465245
A 13.699723453698518 -1.8476968811343257 -7.9512171142581174
A -11.939946009297579 -0.79149093016227701 14.453392129420207
A -14.747679988697577 -6.6907893387332358 -10.37264847751729
A -9.1170292877655879 -2.6265429256323518 -11.191991928088752
A -10.042078803019423 -10.622816386386555 -12.535634189896321
A -13.218536311935909 3.7455268727923259 -11.823592382238429
A -8.8206579995959267 2.2215887336780415 14.939806473534912
A -9.965561999991559 -9.8963934481901301 13.022235924724741
A -10.667562839343885 -4.5012676969294345 -13.23197820370601
A -10.086520520720597 -6.9242140377660997 12.736444464075319
A -13.52779519011267 -1.6958768775658331 -13.06307590133799
A -7.972832232869556 -11.847579126473001 -10.892063683619952
A -7.228997468243147 -13.119606402768211 -13.970472084459516
A -8.1804141840192077 -4.377075924702547 -14.385066271864883
A -7.5109360041585029 0.27241723588629801 12.625006116603467
A -6.5844767515055365 -1.8000707763238675 12.856533388355166
A -7.7164379142443122 -4.8882844862591641 -12.110844798897814
A -3.4515812554959893 -9.5248435813718402 11.212762725318139
A -7.0575840635883988 -0.47293927582754364 14.920170305344136
A -11.443895632174135 -2.8228610371423457 -13.597998147114813
A -8.2268123678406031 -3.3912094560161039 13.270764803158718
A -1.9983846789890296 -1.9501336738319173 13.391234279352041
A -6.7822304551757533 -4.0256434497937787 12.579271823654581
A -4.4381919006168031 -3.5436104312818069 13.583705159047646
A -2.7778918683722695 -11.518696839401269 -13.68363696522556
A -8.6606214044572845 -3.1617995396704703 12.226362891557544
A -3.0029662009898623 2.9049873413688454 12.889530566624863
A -4.3270273655343967 1.0194671073841968 -13.680207093868285
A -8.6849328940839499 -5.729200784294882 -11.736278348916704
A -1.309208868918567 -7.0202070833234327 14.307685446441251
A 3.3612851408668414 -8.9276264918819841 -10.053972767809354
A 1.5155073499686205 1.5015618214410003 13.519865764591767
A -0.77605280540943111 -3.3958093763704236 -10.609106268021884
A -1.8731353522248912 -0.95032999071315893 -13.120653334880583
A -2.4228019925282158 -0.10015617884385457 -12.740567567209112
A 4.4841940659283814 -4.3002314411300242 -14.066648769440469
A 3.9896709549026839 -3.1497015912807464 -10.125694686167966
A 2.196413353765458 -9.2832299865869743 12.050064927991459
A -0.61798798162863022 -2.8251497568230683 15.037632649690599
A 2.5989758486689594 -0.27451124376826042 -12.247227815046234
A 0.056725126401489578 -3.5719494965542209 11.341684851016867
A 0.87980708471869895 -7.9316178710639811 -8.0410964184350515
A 5.2269068704665269 -0.87357593985002313 -10.121201029966826
A 8.3726746945942114 -8.3288286091687862 -14.780184872877312
A 1.040425380250896 -6.4754857851436762 14.13316833087625
A 1.3805739786963498 -4.0216620315094342 11.338828440593604
A 6.1767670871639924 -4.6764043870601117 -14.643236776424249
A 1.3159962175657134 -0.92463012526836663 9.1329471319941664
A 7.4907768928909153 -5.9006661739924713 -14.400083900062429
A 4.2886504578407347 -1.0191395775215941 14.411817843092066
A 11.701000689785783 -7.9067361098498399 -12.873143993005849
A 7.6851070807058033 -2.8541388622762058 14.018243254042785
A 11.21251462918301 -6.5351460727054924 -10.659991038428153
A 5.3288753178019359 3.0613875392689036 13.489716147869219
A 8.6132041576212348 -5.988839813852227 -11.40088986375766