ITEM: TIMESTEP
8
ITEM: NUMBER OF ATOMS
23328
ITEM: BOX BOUNDS pp pp pp
-15.08190489966774 15.08190489966774
-15.08190489966774 15.08190489966774
-15.08190489966774 15.08190489966774
ITEM: ATOMS type x y z
A 12.009555663489405 13.15298417570043 -11.879260955413029
A -11.204803977239031 -15.057653520161507 13.110531593971915
A 10.833260186181198 -13.256912091216309 14.453122945890104
A -12.624557797512898 11.541461116181718 11.564784429634161
A -14.059856291631601 -12.141679007879901 11.318177316024947
A 13.424392215291144 -13.253699526896352 13.304169999963442
A -14.842020691598382 -14.627867467513882 13.59512923832801
A 14.126136141329457 14.272943111662684 12.684157439214564
A -14.904712377445353 -10.199367434492085 -9.6502572993421811
A -14.735064946629951 -11.072911470049545 14.241242549000811
A -11.659222146011075 -12.596452540253644 -11.0063034981724
A -7.4048486047055881 12.712419001717828 14.083486831155478
A -8.3651543745140238 -9.0916903611839448 13.990612738106153
A -8.3664825317012301 13.267552386714158 -9.4673060972512904
A -12.004980686856586 -10.605028022198717 -12.688997729228676
A -6.8660175609892899 -13.339902424671676 -9.7044515072105018
A -8.5290004216790045 -14.271795751538068 9.6108608952805099
A -10.010332263600505 -12.846686872347503 -11.606040725914937
A -12.167030402818673 14.327217012722581 -9.4909129870160776
A 12.215766323518533 13.033510949165834 -13.794538226298398
A -5.8879354667215908 12.377484529083485 14.587664018371857
A -12.089323197948818 -11.528834795485176 12.13104643814891
A -11.42421945081705 -12.057596147339487 -14.026996639133509
A -3.1606035551071141 14.379750299611455 13.255069691645481
A -6.8811106443238463 -14.115238332116933 15.023949006110762
A -4.7928927360172775 -10.039255333865295 -9.1991958590561627
A -0.091645281948993434 -14.046265970642224 14.64432742015158
A -4.236524120688447 13.230408142802798 14.90309921518651
A 0.51802413652939761 15.011535141535839 12.853713766623141
A -0.1498047442798599 -11.050359708292206 -14.137210354051877
A -4.1083861363896537 12.393045341366864 -14.504798796169757
A 0.11779372222947222 10.545679048605116 -11.655497998929837
A -0.78356717626466776 8.3308317419398463 11.344946131779043
A -4.0710303836813457 15.048268775010385 13.147334996968285
A -0.80161527906900099 9.0962595614026203 -12.400753356123593
A -0.55385491919410956 15.050145629319946 -14.443984645311287
A 2.0092758154250974 -8.609924350940263 9.9856298463672797
A 2.9710170050190476 12.918238960458412 14.015400247084639
A -5.4026319865372585 -12.371524059350762 -13.138373511846522
A 4.3535663729476779 12.765417394369562 -12.483903171626526
A 1.7219103431924918 13.536641105241049 -10.084967405236894
A 3.5226946192657937 13.991217066198274 -10.650585624886787
A 6.6355784299168148 -13.684798555989238 -4.64556938579776
A -1.2312272548287639 12.488693772046039 -13.336718052359583
A 8.292147025161805 9.5977028007050897 -12.034134236006334
A 4.5914514351460545 -10.742304277514656 12.118488625876966
A -2.9653957019654009 -10.609479239816016 -10.746939173698845
A 0.90934648648840266 12.43442582323231 13.761568986332495
A 6.677733078871408 11.160767706273322 -12.687923093176463
A 5.6268519721644221 14.552395291519971 -13.337746584838381
A 8.0209006034986867 -12.648588607113314 13.070131867547126
A 7.7163520403872337 14.689641073652401 -14.244472320595687
A 2.903186151776922 -13.16225911749787 -12.004121769498537
A 10.161137565484903 -11.59493700312745 -10.944075495774282
A 7.846734420525852 -12.977457191498559 -14.335793633642574
A 7.7230925604129359 -11.376361253098395 10.303230775295972
A -14.175523779382607 14.915601063834348 8.7754149354288522
A 6.3758410221983803 -13.565271412595616 -14.898067204245804
A 9.4804373601750687 11.106597458599854 -13.791759780466478
A 7.1635938595258306 13.162860100891855 -11.943828328519245
A 11.32171767511983 -5.5904277493971062 13.303424321707201
A -14.222231023438493 -13.920188910677972 12.86699104884458
A 11.136265122906586 -14.22656899006344 -12.535412101859507
A 6.4619618918666903 -7.8799001621006646 -13.757000959458356
A 12.837973399476793 -11.937969225834689 -13.514841112768615
A 13.121398072572868 10.997229927181353 14.140626660028234
A -13.929912683019209 -4.3412195235783075 13.789079728762324
A 6.5411975627805328 -13.107519301144723 -9.7326461214121149
A -14.999039224620262 12.48613473580051 13.449225696157704
A 9.1226108245060882 11.846442370933975 -10.860963064975056
A 14.111875364565579 -8.7697880231519676 13.11372615701398
A 8.2016558180894013 -12.192068950918435 -13.466509947657691
A 12.531893022939958 14.284994874602162 -12.418563740002678
A -12.423477048846328 -11.777158677975073 11.142056798918318
A -14.707922465056594 -10.702510150255623 -13.943039023308208
A 14.030013209736516 -14.155737872590846 14.909261566368061
A 13.178470708027017 -4.5013127240235074 -8.9673974500894786
A 9.0501923512699829 11.954186603355891 -13.451101728164588
A -10.98429078484655 -12.84690194290814 -9.809936369225408
A 14.485331221035807 14.176125971766103 -12.264180621371475
A -8.7774333776634208 10.907927241471091 13.476624888936657
A -4.4178101441963555 -7.416041954329919 -11.07731774836221
A 13.770860265719568 -11.269733707273879 -12.730455482473012
A -8.7792698810199923 -13.22145625380243 10.837242404628224
A -8.4164280719274345 14.524147541047713 -13.284924833204755
A -11.002712234145701 -8.7957690043247663 -13.409628822395719
A -7.5338068122717523 -7.4791109152201622 -11.95777420785169
A -5.8464153084080737 -12.178556601216718 12.195695912674182
A -8.0308705010408907 -8.4871438896326676 -11.87350510526678
A -10.486377670009052 -14.295416012844306 -11.243509658220811
A -2.0667570436713381 -11.467567988641964 -6.8445570563798785
A -9.8458230323838958 13.654004722781956 -3.4672338738604869
A -8.9843700583172286 -12.454859587896308 11.519035029054304
A -10.164817878231473 12.099284388478805 12.215070585760939
A -14.734887263291137 14.625117489195318 -14.42666025566176
A -3.1952359047310095 -13.163334541627224 -12.678014201963618
A -1.8906265444286035 -10.089891385843515 10.109038892123973
A -7.3845500196365075 13.56437518605809 -11.047819850860721
A -1.5281621286872469 -11.472660858956157 -10.84066662578641
A -7.1252204637827408 14.22137420381355 12.978242177390833
A -7.6466728701549522 -12.221878834583833 14.139111074773805
A -2.229299455523448 -13.500105998182377 14.881553294588723
A -0.98289103897474639 -10.392292713998279 -13.293788835394174
A -2.4896469028582247 13.042148525687601 -12.14633703619298
A -3.9031653604430923 -15.048654119987109 -14.916725320664856
A 3.6752912866572713 -8.250206083674593 -10.523727083710433
A 2.3073120062088632 -11.272970586564002 -13.841502402008425
A -3.393218597891682 -5.1141759593668032 -13.490164843091636
A -6.5371994860914677 -11.462537846597087 9.7421828900543055
A -3.9170451772311119 12.974797346032346 12.496406974569195
A -0.31470121053192129 14.170821873411796 -13.640035476236436
A 1.8948080814931192 10.772633084977731 -8.9604388706477209
A 1.2283635214544777 11.507056794674561 9.4182816630936514
A 1.9552762396007535 -13.936189562591537 -13.912304372280309
A 2.4422084280163241 -13.136067816910682 13.329752483404652
A 6.0379811305780882 13.663672646029212 -7.3120558049822462
A 3.0875759460172216 -13.647134101506193 14.986216460564695
A 1.7386846955688378 -11.591383365009749 -11.946827701944907
A 0.27545922753733776 -9.6548335064234063 14.491676760116453
A 2.2336564428850298 -9.4798648181150593 -13.95464677125927
A 10.2376674344134 -9.1425757221067023 10.13315741439474
A 1.5098212065067931 -5.0628121460913462 -6.9617630192015643
A -1.052319235800234 -9.1693245969215003 13.115296856796771
A 4.6590791427066955 14.535573311317323 13.547155334010917
A 8.7676394607424033 14.253478015094515 -7.5243973362031538
A 11.209794902551829 -14.09587261408438 14.891598006974752
A 7.0411671349802827 -13.647950655204518 -14.144515728154353
A 8.6429401237543093 -7.8133284386361197 -10.054891139569001
A 9.2923807211183735 -9.9622398240337873 -10.481570019344989
A -13.903851586699325 -8.8031951869667129 -13.377141108489885
A 3.0060834401592906 12.260121855435695 12.150656705265073
A 7.4285612779686794 -14.017720018060462 13.857400322657538
A 12.856875964843415 13.427925073312547 13.058512641943928
A 14.004470236985023 -7.2686700430254412 -12.018295221086511
A 13.883119960734289 14.840190830591961 10.516730405113426
A 4.8928735517161979 -11.852361979012052 14.5269819932702
A 11.852745810691317 -13.247774201453616 13.123571300060044
A 12.421879454752048 14.98572071709596 12.960912384403454
A 12.585797756674001 -8.991232460011398 -11.756767263456835
A 11.75986822491673 -8.4453639687877295 -12.350028752366052
A -14.357934723902197 12.08543249341451 10.459842300991486
A -13.870785547492122 -11.598234271373501 -9.4735641458063533
A 12.94971716859124 -14.813952095281776 -10.204114707117535
A -11.067236174051519 -10.543120141681685 -14.298597413522399
A 13.01888639070504 -14.716215734571946 11.165002024086707
A -11.959077553439396 -8.9086856997397081 -11.269246216850842
A 10.915517130767142 -6.6568037705715941 -8.4430537324201396
A -12.708929993614939 -12.334673403650566 13.154207146295107
A 13.83449038208197 -9.492557769662108 -12.142984805149547
A -10.571561654170115 -8.4919057227717669 -12.508615118704125
A 15.049816767129972 -10.757734583615466 12.86310006554908
A -5.3665511314291168 -10.765338803326705 -12.023623105610506
A 14.961818778827414 -6.4739449170865866 -14.749704655909158
A -8.3929758548154272 -8.3712647287258655 -10.368317711677177
A -10.022174360691331 -8.1460295054252025 14.381466313579887
A -9.0278934492569896 -8.8549443281386271 -6.3436627680434272
A -5.0228940844923873 14.075279985152575 14.376371717217335
A -4.9264254326698937 -13.503908401037245 -13.406039076211293
A -10.31840661454795 -10.046618848661947 -14.779216543996695
A -8.9016012454439668 -8.0094200273108189 -12.714154097123401
A -8.3352736772137863 -14.179833920020256 -12.125500021044548
A -9.86659339036758 -11.303021245759199 -12.866889425453763
A -7.4343482295292098 -9.5261754223360686 -10.131118999833317
A -3.3958526346845392 14.759848338148165 14.363382550882628
A -5.8276744208734774 -12.46885342022799 -8.2162212483109691
A -1.3569749679256897 -13.031319385343098 -9.793614755080764
A -7.5743357490689505 -3.3425438681510293 -10.939126010398343
A -3.9180774073199469 -11.782384447720071 -14.64492634957883
A -2.908406863037972 -9.9102971602217327 13.5265449776703
A -6.0642110799938154 -14.920636808733262 -11.191440541966077
A -5.1703126002715516 -8.7771041030419568 -13.474676830754976
A -3.1738906453583153 -13.997248781007309 -12.060149595543365
A 1.8546455790773362 -11.518799084353105 -8.7248909471776201
A -1.7969795977905434 -12.955396508094267 -7.318817900824298
A -10.732579007847418 -14.532981661081633 -12.202215454397971
A -1.4891811367931282 -11.230517879289016 11.226604453750387
A 2.25081373055081 -11.412134785050657 -12.787911587879355
A -2.3638539730517985 -9.9407959507987975 -11.241981210215194
A -5.2437699774162088 -11.986018895670924 13.971166412671991
A -2.3893848791991217 13.438696945519823 -9.2476822963854008
A -0.2901745736012537 12.378642383235986 11.851395067500473
A -0.030628817798294863 -8.4096976869619091 -12.127457153351203
A 4.2779571857016707 -8.7986229814973704 8.850951393516981
A 2.2991177932382167 14.47613928708477 11.211391390086895
A 1.813717768354943 -10.467557363660594 6.6088546925748846
A 3.9699099813491641 -11.092854603971848 -13.57186254937864
A -3.2091372734163879 -9.3061537908963263 14.380256022748071
A -2.8709344534197809 -10.951687749055152 -7.4341506110899962
A 3.2276255552632547 -11.96402349257092 -10.142661659722425
A 3.9273466548926104 -9.9616172178871931 -13.683455448666688
A 2.6267493690044947 -15.048726632666002 -12.416552296828398
A 5.7504684847982004 -11.483178635976598 -12.177769544437275
A 3.4355470870428864 -9.9710257415467911 -11.69843646499193
A 5.427957596063905 -9.9319672432583666 14.229246166579106
A 3.5932850121266071 -11.084287278081927 -11.553518081279522
A 6.7983288027181734 -11.201486832077673 -13.637027055813785
A 5.436520932745994 -9.5736572579904049 -11.698891550870906
A 4.9734253660846246 -8.9111338685052939 -8.9997391543013254
A 5.98268751821153 -5.896766352714514 -14.222945958997371
A 12.451946781845807 -10.350937694169573 -14.76648976796041
A 5.7827240697413771 -9.5199468006934946 -14.919581019665081
A 5.7790469883989646 -10.338174869091217 -13.004681838250077
A 9.1401830764341749 -6.6969105438460304 13.543917983121489
A 8.3875058628047139 -8.1176583753717821 14.097493420116306
A 3.5529618091521376 -8.771586062564749 14.999204618508674
A 12.304747236294901 -13.810140461459891 10.96706556102057
A 8.8447112642429762 -11.207977284881988 15.018923876879759
A 9.9705378943289897 -14.611148191394445 -14.151328199405651
A 14.170033304648902 -10.3218801702969 8.4451528983544808
A 13.377678584586896 -12.785988693085939 -7.4373673407839833
A 12.668503266424867 -14.803026401548369 -11.46529054724615
A -13.476793704616954 -8.5942428444517169 12.140025034075588
A -13.295457543233454 -10.32461789773472 -14.325378014618842
A 14.957237838863149 -7.4094126979796373 -14.145552393562232
A -14.549859874565382 15.048332699089993 -11.608471272375287
A 13.445187573354065 -13.23926291295826 14.659696631214706
A 13.916660531030676 -10.360403639022181 11.811781723891391
A 13.083117781246411 -8.0741239764069785 11.87179934261189
A 12.655149068881531 -2.6437372570262387 11.908880995668422
A 7.7733595936578537 -10.254018759300587 -9.425798671226314
A -14.02557244981087 -11.012890182770667 -13.238361774441078
A -7.1427497719720519 -11.317919796814632 -9.3694386703162422
A -11.618574718344082 -11.446242904673838 -12.020652527522492
A 9.8190193294787314 -12.860146108195504 12.759731617449651
A -12.776543214963267 -12.662912416369211 -12.878512489599293
A -8.3566694815759703 -13.695758596781296 -9.1319219166412715
A -10.1402356355281 -8.7658864766571938 13.573506622213536
A -11.772695991037605 -11.496247365075945 -11.002207358603675
A -8.5416788043998171 -10.672798520110504 -14.569866688788375
A -7.6816285781740463 -11.221336329377793 -11.675273472793769
A -5.2012904961400475 -7.8806011070589532 -9.4953133988375722
A -3.1710311875443851 14.881251710278804 -12.196566505845151
A -8.0893885397092227 -13.155021976332449 14.200370393378115
A -3.9874671600193268 -10.808735602726475 -14.98254549681325
A -7.5275848706890214 -13.230586621166864 -15.046211117608012
A -4.5305184628752775 -13.449188921975505 -10.028415848526535
A -2.6903684776205918 -12.629620467781796 -13.455543532944588
A 0.96459998578188566 14.833704362197432 -9.2177977909846796
A 0.51931856391329667 -13.301582945595262 -10.26865873382893
A -9.3207309630445501 -9.6587186510686251 -14.727000992199118
A -2.8462731840957085 -9.7578083131068798 -13.602916009562247
A -3.1393731839281904 -10.426101332516177 -12.870560088857996
A -3.9143413858589349 -11.582547259529692 -9.8388359101507881
A 2.1494309243154675 -8.0867350839769436 8.9833497372162352
A -0.97643380993897577 -11.180629046801144 13.392656040266839
A -1.466900506907765 -12.528053984051342 -8.9023711752989207
A -0.03276068178450265 -2.8830482501659538 -9.0833565821256581
A 3.3837697046830213 -13.016436831667685 -12.900744505075057
A -6.1829391849839501 -13.328470833586421 -14.960796372879864
A -0.4516631464223167 -6.8172668204579789 -13.924865763673637
A -2.7590856823447099 -11.099872114571667 13.213224839325861
A -0.88224224495121761 -3.5887076696126896 12.001569897984364
A -1.1046960712494474 -10.317261737741564 10.986269790738314
A 1.7409374685790018 -9.3337509066021855 10.747379117959092
A -2.3504451393976313 -0.78853812679757185 14.678013931054874
A 2.5676889556228359 -13.000130101593946 -10.329224179478292
A 2.833086848597647 -3.8507460600272956 -12.660779567641711
A 6.7284677590856248 -7.5310412748015603 -12.84584999598731
A 3.3829086254264062 -6.6794234831692076 -6.6789023859746228
A 1.6970736652221048 -9.7275967497428866 14.517113275449033
A 0.14787407196353936 -4.198158439330455 12.252639732395281
A -2.602604162545755 -8.1635343646774263 -11.193725411773613
A 2.0200760387962253 -9.1478388844297633 9.1172403799488873
A 3.1174727120105614 -10.653006635296386 -12.775610729377066
A 4.2050049947014276 -7.4289455620143876 -10.098586566724045
A -15.03196441631494 -6.2199258261375423 13.229902403106317
A 4.6285513705710777 -6.3937894332492302 12.747108480521996
A 8.6136163491499982 -9.0032669919528878 -14.718399185587412
A 9.1514847604166807 -14.117853342014918 -13.202708843492909
A 11.055169115031271 -4.9178425627585636 -9.0185306285736733
A 10.413783147771415 -11.368007166320588 -14.816791575257556
A 9.9042702401804057 -11.148791071341844 10.147879990954493
A 13.042898109356662 -8.9522766506612221 10.255719053962027
A 11.043418458109139 -10.771046274183233 -12.615823998065471
A 11.63701433194367 -2.6422564726086648 -8.587717984837651
A 12.620984490637792 -11.019999082791323 -13.06446576362641
A -11.337168717168179 -7.0921613408076656 10.483502400918839
A 13.573412660566321 -9.5085857728931593 13.75139129639901
A 12.678272816125716 -9.3558514867151015 -14.75368263406642
A 11.106556016934844 -8.927196879432362 -11.602620260905907
A -14.089867209304058 -3.2639070735924345 12.048189639154449
A 5.0126889117630311 -13.201279084072237 11.433758836892469
A 12.38475067329135 -9.7908116442786923 -10.370774586272647
A 14.258546008683062 13.771455926764201 8.2707715536139741
A 14.825366928357973 -10.839205590205728 11.857980898810364
A -13.118313499728654 -3.0523127948823676 -12.751532513131396
A 9.4416535278976266 -9.6239486899397857 -13.372926256094711
A -9.4950524380392647 -7.2722189846696148 14.12273238584523
A -13.893599297476772 0.083579279143843874 -10.747862841889408
A -14.789601008633033 -1.8636964323044105 -14.503649715440446
A 12.463091697106435 -8.0327353990210231 -11.020469888695924
A -12.677738649959243 -2.8453187727148594 13.45509434154744
A -11.130830729584469 -9.1699778522852728 13.337511242098635
A -9.1383793149512389 -8.68453892342648 -13.643608291712805
A -8.7077101433317292 -4.7012921601561048 14.986471185538203
A -14.735640596869175 -8.12038363775841 -13.398856661026858
A -11.976967203635121 -9.8650782313953318 -13.854621764765007
A -11.106699687163184 -2.629659324372275 -13.727739487463316
A -10.41067287779668 -12.675544691620214 -13.87951901398938
A -13.123908817505372 -6.9333477742226579 -5.7397602582405316
A -11.634090606224008 -11.354561777980855 14.854165049772201
A -8.6774747935672014 -8.0534050186029731 -7.4848783257677143
A -4.5100058610684712 -9.2197972170673665 -12.511101013953413
A -4.5059418126263235 -13.353204490339859 -14.405328978311415
A -11.109664846500278 -11.043219312391843 -12.891000455704866
A -3.6931270861310694 -5.8570865300822659 -14.505955040965478
A -3.5997027970786317 -13.320792311451749 -9.6222375881378319
A -6.0405839554876932 -4.2868985537387729 -10.628393504109772
A -6.6157527649150953 -8.2482436085743061 -14.830452186987159
A -6.5946801415279905 -10.383598038884204 -13.999260733747308
A -5.8548287519500812 -7.8900670555452654 -13.997655332730961
A -9.1701984346147167 -8.4707327786360054 13.501211127641167
A -3.4882902027346172 -7.015058010987743 -10.147135552296222
A -4.5360066423647147 -7.8279974839559268 -8.4899711773013085
A -3.9105147147186035 13.389866597303666 -8.0195181388158137
A -5.9153367861868835 -8.9100125388701805 -11.479156948418249
A -3.0262577492449951 -7.7313261078453861 -12.974582183787243
A -0.95296273167285117 -8.9012722136120495 -14.025650487531768
A 6.0350098020860461 -8.5278781435034876 -13.105313107174791
A 1.2803978956100748 -4.9110054662693106 -11.151013199390063
A -2.3319555940150747 -5.1690312993975267 14.961089248990643
A 3.7925384289656217 -7.8397273156542839 -11.511914494796127
A -5.1498154360834167 -6.0616535287872857 -13.254730476014617
A -3.1453558787367339 -7.7768281285189094 -14.769710846205333
A 0.80310480255715722 -7.3208159415591494 14.064243622193215
A -0.81821592419864575 -0.91177541840274479 13.903866708565852
A 1.5326847057142168 -9.0949702870222797 -12.647401483319433
A 2.0925772624640429 -0.93297931258778188 -11.580047791548493
A 8.0925756907893689 -10.594799698264234 -14.413328211236905
A 0.17716501165656151 -14.424049739624122 -12.627356155888055
A 2.6011495536244036 -10.983282090599776 -11.462772567589584
A 0.78475369776834991 -4.5708814172117966 -13.695384992927337
A 1.4945927110673631 -11.628730726866934 11.12212126685305
A 0.1819515196850956 -2.3588541336374802 -12.19543890783169
A 3.2161567236630186 -8.1535780282325749 13.154002360999389
A -0.16306795996317719 -10.054354609293574 -12.830640346041116
A 4.7961989796524627 -11.373025353761808 -12.90127036916545
A 2.9909567227204024 -5.5448083451124726 14.615303321465285
A 4.8855706506689183 -9.5103462336550884 11.180605765043961
A 7.5653468115760862 -4.5563440140387463 -12.934273434882419
A 11.954413150359761 -11.821409334845127 10.520467458015839
A 6.3965045731332362 -6.6258935341772318 11.659266135742653
A 7.2248410734817856 -8.283126771794235 14.438767147807605
A 6.6783198833734909 -8.9110831466131604 -14.737929696680752
A -15.010175441242469 -9.0464503601932904 -13.002315516760898
A 11.482615010470559 -5.0088176940216487 12.229985352420258
A 7.3369027953237982 -4.8441893777882328 -14.974551806350126
A 8.9708519276136851 -7.2165860661694694 14.418406198341923
A 7.4241408564780835 -13.876699188245265 10.70089567195876
A 10.074073866778726 -10.218812135545253 -13.923815553624372
A 6.2316200209764308 -7.7356861908467156 13.786867103009218
A 7.7114288037659948 -6.3834968805772245 14.300313595741944
A -13.541100353023413 -6.0888304705409766 12.14380889538498
A 6.8003067191728137 -3.6943594810300695 -15.051957505843301
A 12.432856012032653 -0.46614122515213396 -13.675211560935224
A 15.059099347742293 -8.2971199204812542 -7.9823902029239342
A 11.929205830774434 -7.2909634096071176 -14.851553190569998
A -14.259590695532017 -7.1046104010330913 -13.943712266074595
A 14.066864594170408 0.20513518973232936 -9.9005375438628533
A -11.338686293399409 -6.4611587095990126 -13.187062818727693
A 12.501553386022273 -4.1106613805318606 -12.291191914350541
A -11.95418180825297 -1.9393398089423988 14.820319578700413
A 14.776488298991625 -1.9150459863698834 -12.061516086868338
A 13.614849098225713 -1.3978206175843428 -12.112784448994571
A -12.781498017477418 -9.4453744791014476 14.168845403754782
A 10.174524068831609 -8.1008963543540222 -14.107471595476312
A 13.876560989818813 -5.5409579000986335 14.542712180354481
A -12.614066328687167 -8.2607425051103949 -14.48332739502888
A -6.5497480341178962 -1.7175101130952222 15.009296669439161
A -12.36079262263924 -5.00683057827972 -11.955234123213877
A -12.958960108186838 -8.3314989576247331 -13.383030455948624
A -9.4733346948266917 -6.6891030461396648 -14.20749006841028
A -7.3706480694935212 -10.423037448611309 -12.298596541899451
A -6.6358366855176953 -10.054582449408002 -14.958127307139382
A -4.4684003379124917 1.7019131968447732 -11.77339859422586
A -7.2778113664554258 -4.8938555821983059 -9.0747378971944439
A -8.8181219224630478 -5.6522380929988767 14.142320359718372
A -10.231500363136339 -13.641467051838076 -12.704920675040693
A -8.4455138161459349 -7.2827246816508513 7.9109756285995543
A -5.4883744703476411 -11.393234284336327 -9.8787713134539139
A -6.7268849633597689 -5.6682505357861164 13.632960640028706
A -8.6316133160774822 -10.244351738332314 11.703261707389542
A -8.7573700863073096 -10.146620771133911 -12.586835535164207
A -9.9474576534258343 -7.8973274857529887 -13.050021441089516
A -6.2804070980376174 -1.8398292961795373 -8.0219704799213343
A -4.9946268200064656 -0.047645358111623563 -12.476246159960523
A -6.3243860970397234 -10.544532576679407 -11.727437132816826
A -12.450554385697856 -4.9510855631740629 -12.989725771443869
A -4.3749836087313785 -8.4882101328155795 -9.3421152957739864
A -2.6754199482657235 -1.393959161212428 13.703889291875317
A -2.283627326163749 2.1841895614333748 12.895987673880061
A -5.7778662612977536 -8.34988986771498 -5.9484578740069241
A 0.817768933661702 -9.5298241489347344 -9.6401596097816711
A -3.3022757078442115 1.4518536829363404 3.2219817330377869
A -0.048201720712477088 -6.9826996317292638 13.576240799186332
A 2.3081197430690543 -8.2145607673794689 -6.4026630960621231
A -2.2992003017480802 -2.4539254486968796 -11.696088128935809
A -1.4784646803587274 -7.5704124956177283 -12.257151252984752
A 3.7848019174968925 -5.4210254042154107 -14.396858917851667
A -1.3285302162884582 -13.042126335555995 -12.842510797788265
A 0.54965097592125711 -3.1976104216559329 -12.863531588292927
A 4.9802355714464328 -13.801821185530851 -12.802918941256927
A 1.3084532082429565 -5.8945936500018723 -11.989531152443288
A 4.9604174965111403 1.3131608568570781 -14.360212981975499
A 3.072784830595328 -3.2546013462705683 14.98605421759445
A -0.43942039031868735 -10.327360187905223 -14.853694731730657
A 5.7422842386623518 -4.9095877625041906 -13.312120715644843
A 3.2964576744916116 -9.7940002421013723 8.5698599634526254
A 10.519385451821501 -8.3743858783899796 14.981125028389064
A 4.435167426762364 -5.7944819297220889 14.852355558375107
A 3.7223957870383764 -2.4784809563173482 -10.581349801442284
A 12.020860172186573 -8.808935086963702 13.306944255877625
A 5.218586048578759 -0.71151388563134566 9.7378602564674619
A 13.876372721176578 -4.7747918706615442 12.072041245578701
A 8.3635878447663092 -5.1032458258138655 14.847227143602634
A 12.596207671078371 -6.0088000384370908 -9.2261874653962916
A 3.4429123900422098 -5.5420354985432061 11.222594893609042
A 3.6366370555201724 -8.1909030348729583 11.320135257590243
A 6.7568370474236366 -10.311253676563208 -14.606749009167212
A 12.313806844615481 -0.12074536281791998 -9.2398284836168063
A 10.80201021556061 -7.4556071818645746 -14.776512838096146
A 7.2332886651800639 -0.78468276397689263 -13.919539437155887
A -14.960760421816037 -7.3457576414425159 14.870665590407325
A 14.938522813213247 -6.1877756718895149 14.454423466715904
A 3.0846093918174913 -2.8528190937142166 14.01612768863856
A -11.730740546765132 -3.0680206846359304 14.813194020590171
A 7.950230177071707 -2.6058351918821581 -13.836843119919745
A 5.4821813207813035 -10.244346851166172 12.472200779733363
A 12.215415893390679 -5.9756522810697801 13.702356197705459
A 14.455026513418208 -14.471549657213874 -13.025139864656381
A -13.525551265556118 -7.6062115044715775 12.56118703046832
A 14.879678880617194 -3.4023419171988016 -10.414671411119638
A -14.141261715444918 2.1748114015798246 10.603007001218231
A -10.475242499492087 -4.1843878079630352 -10.051228954793812
A -11.808796278601671 -1.0676474624932153 -6.6478695224395485
A 12.741954454917099 -2.0083089551031832 -9.7454748678003877
A -10.871410653185409 -1.0079153914287371 -14.904005692354618
A -14.858266023228948 -5.8702513748426171 -10.489066894307653
A -7.4614404625616126 -2.357605834324179 -10.804179847748753
A -11.385802329178739 -10.226544542475361 -11.851679203329917
A -14.075286645477476 4.0238913774199032 -11.11401207208181
A -8.4706828279838717 1.9349479458970567 -14.976965006178617
A -9.4423860235340271 -9.2544020173829367 14.18509286670001
A -11.920246411260276 -5.6497962644688151 -13.495780714433725
A -8.9865233903885855 -7.0274912218783125 11.955254600010905
A -13.471315131459258 -0.87964890118854866 -12.340531696510498
A -8.970795929143808 -12.915313051292467 -11.678978656164894
A -8.0700866252832615 -12.777970677580191 -13.649861186957519
A -8.1939573759263382 -3.7681498796072717 -14.614060376017081
A -7.6664798990649201 0.5215940765210616 12.81640005330687
A -5.8042241225386828 -1.2650612169873889 13.403158171472489
A -7.6448984809109168 -4.0389388776028134 -11.988643922203325
A -4.2520215644200681 -9.970707035399256 12.314002410325381
A -5.9858238312277816 -0.22173419934384114 -14.227619988994343
A -11.062448837488573 -2.2088539813298462 -14.697657842580012
A -7.8264378022980852 -2.9849409984985753 12.601722398666784
A -1.3580007466683779 -3.4064914788931424 13.032545457682138
A -7.1074319847444531 -3.7551124552794621 12.795374475497924
A -3.430792026189061 -3.7527007534707768 14.066272088318369
A -2.1545921829587158 -10.661796287755548 -14.020623985499746
A -9.4395814160824578 -2.6617901283602481 12.663884849933492
A -3.3697168612799677 1.5664621640218039 12.877752191827742
A -3.8606347734205269 1.6237149599683933 -13.074379664719716
A -8.3895796916511713 -6.563924320472756 -11.013840871614439
A -1.3868131806104795 -7.0545046325777827 -14.850299083502124
A 1.4109093683116449 -9.217653657047709 -10.402676266585347
A 1.7433724781503421 0.75352892297548368 14.451330150517988
A -0.98792422802502244 -2.6385588742857018 -10.282530143350867
A -1.6869925452339616 -0.79039301724896083 -12.571122704046957
A -1.9092194996925489 -0.41272493658998949 -11.59449455201238
A 4.5359882259766628 -3.552343057810003 -13.949988973370733
A 4.9218683680941728 -4.2153869116501523 -10.226012935679172
A 2.3569251461901679 -8.3524595443880081 12.213201165068133
A -0.18099302380023183 -1.989819989451157 14.827636606908236
A 3.1743880518490459 1.1686507836528861 -13.154147634184008
A 0.5912282318756128 -2.9543377509947053 11.122005972199673
A 1.5296234258302888 -6.8725159905260966 -7.8649530661787708
A 6.2894846163800544 -0.92747373775828101 -9.1781066173511459
A 8.3552516724974542 -7.9303063179966617 -14.001576129290214
A 2.8695121618723425 -8.2214308834448833 14.259852529850344
A 1.0624350506496392 -5.6772255551244593 11.400278178154327
A 4.8156783010217081 -3.8012281734934477 14.757128390886274
A 0.62916181840336505 -1.6684845674424997 8.5526908330872473
A 7.706917133385252 -5.2187996530056298 -14.077072201938321
A 3.2109222501415404 -1.9251031641312044 14.847492215255276
A 12.886836392106394 -8.3111519842835317 -12.720741228474363
A 8.1032062548125552 -2.9215811185503267 14.460793268253173
A 12.10212924520682 -5.8246743646434416 -11.344655131589823
A 5.5000446897034916 3.1289560555043692 13.336467496999376
A 7.1008838525853077 -7.4442703010726774 -10.766780922488193