ITEM: TIMESTEP
3
ITEM: NUMBER OF ATOMS
23328
ITEM: BOX BOUNDS pp pp pp
-15.08190489966774 15.08190489966774
-15.08190489966774 15.08190489966774
-15.08190489966774 15.08190489966774
ITEM: ATOMS type x y z
A 12.763990783675242 13.634023575729431 -12.045376784287757
A -8.984457881197093 14.92372614786302 12.54775157784014
A 10.082439329108931 -11.858145386670779 14.767797997335419
A -14.280135894129621 10.609424418047814 10.795857116684829
A -14.559844861167075 -11.477896882582957 12.886480693510036
A 13.348630550334963 -11.294139952209543 -14.446893899236661
A -14.657481756085321 -14.656681397276719 13.907910940837974
A -14.858131722876085 13.755328719045536 13.747032693155903
A -12.351755599820203 -13.048355941164623 -10.086575712851241
A -14.38573897051382 -11.538321413322311 14.632166082128782
A -13.918677447167182 -12.734768536821484 -13.889264114625339
A -7.8823259131712327 12.955684595030903 13.586477816866459
A -6.9590953376636362 -12.088384970119769 13.269285521187516
A -8.0415237540531539 13.845145861203196 -8.7860678394356579
A -10.927250527598137 -11.271024782704171 -11.949567362089766
A -6.2583155741844969 -13.445683713581577 -9.695949152777267
A -7.7801498275259968 15.042228403237585 9.9863264370818445
A -10.116204400553823 -13.629872875772701 -11.726719390592329
A -11.65437321508613 14.334522430361632 -10.221022434388999
A 13.173252148766368 -15.053911205352463 -11.724481379671468
A -5.9273528431794489 13.622187397983515 13.607821154085835
A -13.190706294787292 -10.035259959027139 12.081699201627444
A -10.88156203732521 -10.769517306311826 -14.245186637211077
A -3.4269520144297916 -14.500468090709179 13.349937133985351
A -5.959262362417296 -14.258889063554625 -14.568121210214876
A -4.2320024448380833 -10.235400159415944 -8.8795853390829418
A 2.420947061117865 14.963841176017102 15.013989786058227
A -6.1661004892207849 14.256654534651883 -13.316577533805663
A 0.38015642414723677 -14.885793258026291 12.591126590983691
A -0.77424419597017136 -10.47567078761049 13.931874301257828
A -3.6626417403507197 12.455566107568748 -14.365860309993847
A 0.93144135984361243 9.0735653118836428 -10.898433806412159
A -0.5559717330833428 9.6110178084249664 11.044426016122937
A -1.2989198983646342 14.937350248530409 12.702797467423142
A -0.66255262927390446 8.4945358931517294 -13.347193800472562
A -0.43055849144865915 14.877963983665408 14.56542270930159
A 1.3951894783666383 -8.4948180338583601 9.3660609146858427
A 2.1081196603267722 13.055702112320985 13.245347905786524
A -4.104629252944501 -13.293191261999597 -13.980334448159693
A 3.6196349847483966 11.51324669659494 -12.015033580551714
A 1.8517518223570972 13.385880990001798 -11.459725831100192
A 2.5188018989927556 13.613025381367347 -12.331646547640451
A 7.1437928322018731 -13.511544202367663 -5.1386480601688849
A -1.1670120071315186 13.324553607708049 -11.198191805562994
A 7.4558071377642516 8.6835045233595913 -14.455237532224201
A 5.6045129510650566 -12.323085438143922 11.942607994934455
A -3.8707401625631475 -10.495051335134558 -9.8481732486111273
A 2.3873771342152432 12.715804430573918 -15.0701280206671
A 6.2111096226802713 10.086791202244431 -14.602722528090766
A 5.7963011973715552 -13.989946896648497 -11.82988248286591
A 8.0564906042124615 -11.475420929008576 14.574170862534437
A 8.3815507259777942 -14.457185889044364 -12.724232560296077
A 2.6483910331373477 -12.679800456430113 -13.487958631376394
A 8.6582077565929847 -12.669857907946316 -12.585003040622992
A 7.2913001234736043 -12.679758897011233 -12.480278055615354
A 10.5580251293236 -11.797894552592229 10.32131396495984
A 14.620493228861577 14.377719901539173 11.915409171507738
A 5.9760493232886089 -13.299607706736824 -13.727441966104822
A 7.1967126618735042 13.151620778932484 -13.692621624035187
A 7.9264600529487916 14.25839669362967 -12.224576156871581
A 14.524276691747225 -6.6596511534768004 11.524969373316164
A 14.670381194387822 -13.768110890890732 12.720187698497318
A 9.2851030770717653 14.693970447654589 -14.174508898492135
A 6.3825994052466744 -8.9303943705580107 -13.129967294490033
A 13.625020577964438 -11.805573715122678 -11.64002900189622
A 12.713525860010577 13.65853076334912 14.304445523534227
A 14.82630158509224 -6.7336431492663893 12.561128839220382
A 6.8798977489498316 -14.283948279578176 -9.5020422260365365
A 15.079849767258096 10.693791490809147 13.756440153998092
A 11.291586500846531 12.589637163869881 -11.384339689089789
A 14.49810872329121 -9.5127804160783409 12.900680966060841
A 8.0670638199388627 -10.36014258961125 -13.765078424103239
A 13.731667484946627 -13.331587429823305 -12.875873021673543
A -13.549421813813723 -11.453292426040701 12.89049637868453
A -15.022724723516035 -10.886108136872407 -12.784671057038711
A 12.538942197645795 -13.057644335350862 -14.841657911487921
A 14.486050187222915 -5.1213690316237299 -10.978894415899925
A 9.2499175793825597 12.522861198070402 -13.760653325207315
A -11.36116286178933 -13.113724242012335 -11.26032034929133
A 14.506627491189517 13.630258956878857 -12.419905793735428
A -8.1528443937354353 10.129934458713249 14.419543638508713
A -5.1309745669304192 -8.2794700738388496 -11.927119968640083
A -14.671014083940198 -11.145346954634094 -10.484831224247728
A -9.3841172089350309 -14.363556292689246 10.717480312416642
A -9.4505263001717221 -14.921460805650264 -14.771184272475898
A -10.073097980225345 -9.0607626196542714 -14.307180146925653
A -7.756235255451438 -8.3672350682109808 -12.519614749050454
A -6.5008108741085406 -12.103880944905107 14.361068894540125
A -6.7536029197406897 -11.015891729018843 -11.848796811905379
A -9.3404790068781125 -11.96362154543648 -10.200831829126548
A -3.7634407404863 -11.023858179992075 -8.1684267981529057
A -8.7071902748870453 13.406500683398884 -5.4782991385033526
A -8.4424229326383085 -12.858871621696794 13.099464612161277
A -8.8623110732118189 11.946282393049566 12.288649097158926
A -12.321762167643467 -14.377286272354754 -14.164088036398443
A -3.0011850460840312 -13.36465264492179 -12.722312097067963
A -3.258731365158432 -12.740954132930796 8.781301293716675
A -8.8669352917151372 -14.848316815320093 -10.99130521600811
A -1.7726089387141957 -11.257742664223764 -9.7672061088047499
A -6.1392394127666385 13.496621898307351 12.506601373719057
A -5.5095281700590935 -12.571362163966949 14.946560220146422
A -2.521985003970113 -13.960358733583154 -14.86192300665912
A -1.0366352673838248 -11.076036074875221 -13.169756639797296
A -2.9277810584001336 12.850129258226154 -10.804849439742098
A -4.0776196035980314 -13.149678523650101 -15.072292754259777
A 1.5852883251952061 -8.4157080044433012 -9.1960333835508763
A 1.7127770127271453 -12.068654140922948 -13.754293598167498
A -3.6925206542026188 -5.5725421951866334 -14.257060588447702
A -6.6859682128196143 -11.639335953719758 10.646915451124515
A -2.5917662511190316 -14.557816194638704 12.141605394521491
A -0.045592088133687161 -14.806992226501656 -14.308873462073771
A 1.6122649636442536 10.841793894211188 -8.379270362122595
A 0.17724413475916606 13.40039517535037 9.9496211558945831
A 2.3091218183462909 -13.743071537385454 -13.321672431630541
A 3.9603604177746519 -14.194977108447084 11.736455731671809
A 6.6330804890050983 14.013490419289184 -9.7465055797108704
A 4.9838863102541344 -13.084075982050779 14.724008792220372
A 1.7392835676461742 -10.947422472092828 -12.117745335709396
A 0.82110706961369162 -10.240699279072576 14.064919693714483
A 3.2297471076058937 -9.5250021097486428 14.768154606046714
A 11.579543304467474 -8.4208987434819953 9.6751729241637303
A 0.96640334706314768 -6.0874145323433257 -6.6002443722181425
A -0.027140420235140378 -8.5493804697772884 -13.769864895501335
A 5.1495122863078366 -14.396812671361031 13.506690722182608
A 8.5246290498978787 13.906366155121447 -7.3420593836735177
A 10.228034196599992 -15.039772202354662 -13.622884183942492
A 6.5122665649806759 14.817626999296225 -12.977022714875858
A 9.3179517456807659 -7.7814136762165305 -10.413139642760765
A 7.8973190463148244 -10.736112102435037 -10.11512941389619
A -14.22586737538866 -7.0154972812374252 -11.726313450469769
A 4.8305756569928588 -14.772536883049474 14.550100115161012
A 7.7235002091928218 -14.804176565354522 14.764132206760477
A 14.327798881241309 13.973712860216743 13.632635944756959
A 14.199685001615522 -8.4368061251823825 -12.77841687119996
A 13.273028396303458 -14.576002232712492 11.151250058042159
A 6.4675888932039607 -10.853577440748257 14.70640600190888
A 11.540102432732082 -12.908875627005848 13.351567206491469
A 12.856413606865708 -14.9458321432551 14.667828134619677
A 13.09771426240343 -8.3917743414920665 -12.835438880164087
A 11.264614632537388 -8.7034712142073847 -11.24500439217924
A 14.904969051848173 14.124399262477858 10.894864067720876
A -13.404380842175604 -11.90571251803375 -11.938671341948147
A 12.910848985307091 -13.910529282753467 -11.521337411557154
A -8.7711006471845074 -12.197462304947187 -11.024885608079993
A 11.927982578057696 14.563943644989129 12.833611678347124
A -11.819687185512375 -10.203443423419181 -13.091220376227076
A 10.189791801517973 -7.6933515743247085 -9.7312699149502802
A -11.801503964236488 -11.554202504821367 14.367993051813365
A -14.81447940565776 -13.018487172237457 -11.421057842051107
A -9.9531349996024172 -7.8832885793572354 -11.687156020558028
A 14.15091266938785 -9.3454864184440165 -14.709529830389704
A -5.3488685457521905 -9.9432276655542911 -12.143970086134784
A -14.509021891830834 -8.6390303764997025 -14.221464134570327
A -10.119350197718308 -8.7225694606534638 -11.057908322460856
A -11.459140714156126 -7.7304560193234453 13.617715286183918
A -8.6092860603012316 -8.1016675873976443 -7.1008439879592427
A -5.1856638463464799 12.633591547322949 -13.842260474138834
A -5.7786116100173031 -13.475850519126134 -13.889576936356285
A -10.079782668419343 -10.999442223930338 -14.834299134538057
A -8.670123818554563 -6.5884009531351087 -10.995168631305017
A -6.821034825807299 -12.692988049814108 -11.443652344003384
A -9.8019775264429256 -11.562869850478037 -12.484830583735109
A -6.3246899215369643 -9.9971857968610074 -10.8611572389914
A -3.898633665963473 -14.095251183806566 14.268224039939753
A -5.2763234745680609 -10.579629597409802 -8.851718160914972
A -1.9876422519711499 -12.180698544285619 -8.9843998694406277
A -7.7345052040292179 -4.3420922541868867 -11.237978504717837
A -3.4121942524936819 -11.259103332405415 -13.841996863226374
A -2.4048463838641223 -10.244971746171755 14.753820616990522
A -4.2289846315920228 -14.297540882599199 -11.450239689330326
A -4.4907767867973805 -10.653064772534835 -13.78900877590576
A -0.96403564088522131 -12.948992595262787 -12.160794260974809
A 2.4933597539542984 -10.985101002078228 -9.6443176373272479
A -3.3416439911429081 -13.324036207132703 -8.1076378266278084
A -9.3894056000750368 -14.124101009594826 -10.154092589783005
A -4.0504704005531877 -10.948393364350029 12.399729512797135
A 2.5694301902678056 -11.407946190008088 -13.889262956159826
A -2.3100822316765814 -10.079865947989012 -10.963122832572147
A -3.3986654325943335 -11.341470324307593 14.688257453214774
A -1.7715891671697173 15.035808511545579 -9.9888480791737742
A 1.5005013709012647 11.672197969626998 11.636536523608948
A -0.6587863125029616 -8.4156959683298105 -11.546829788363661
A 3.2242917669835141 -7.5146814433941236 10.787977437245225
A 2.5637646849389215 13.010172350295305 10.308383514167788
A 2.9070912410210417 -11.330485224196112 8.0209307356162576
A 5.6494170090998175 -12.371702270491147 -14.774078184592263
A -2.2999211652732265 -9.3322735065172715 14.142189003450095
A -3.0209043590997622 -12.28036390673431 -8.8259295240223583
A 3.8670997676813963 -12.533097455026825 -9.962123480004486
A 3.4864113283720366 -9.6157645892035806 -13.340881051025407
A 2.9641138221748595 -13.889871611539007 -14.260924780377314
A 6.3304729115285303 -13.068188673146448 -11.900193383833299
A 3.122894575206336 -9.9493746698527676 -11.043425850219581
A 3.7937070173245346 -8.644409562397481 13.272083846253567
A 3.6162109963783804 -11.041864776661054 -12.092106040949067
A 7.1071959498132165 -10.669986073837274 -13.916036394851355
A 5.5198200259964567 -10.290401348484862 -11.032478867485372
A 5.8143678882045515 -8.8921792352377889 -9.043461294550994
A 4.9117716242886873 -7.0223479809321816 -14.326457648203887
A 10.808754102155559 -9.1797202002145273 -13.314982085544536
A 4.8758315047407503 -7.9830505817265731 -14.678952805385762
A 4.4220927463368591 -10.608377993095024 -13.649066814780163
A 9.5202401492573951 -7.8890121966213913 14.511892663964867
A 6.0582743141736763 -8.154903497957406 -14.722585457213432
A 5.3451539194575322 -6.517489731952101 14.392550384225602
A 13.83422625553415 -12.612536066427543 11.35338848354559
A 7.7775139623814136 -10.642807250145104 -14.744941432542875
A 9.0400244847650484 -13.836084112378883 -14.726008609492187
A 14.105687192541206 -11.551229594182233 8.7092573094992858
A 13.022856349272317 -10.620781528454392 -7.707393208158301
A 10.202328995266981 -14.325048894233023 -10.372882794241933
A -13.848954923092558 -10.586881174024601 13.40713024421451
A -14.175627222661118 -11.750743944511203 -13.347695961070665
A -14.939137722706612 -8.5177539523184596 -12.755852446062999
A -13.579370192659619 14.855828503438634 -12.279880229277643
A 14.243837717362966 -10.735722068162685 -13.840722210620017
A -14.811779507908993 -10.028741170912136 12.817827786827843
A 14.16089441178789 -8.5585317558290459 12.044078238289121
A -14.867201558478749 -3.2877453832820906 12.754395512239018
A 8.3820489975012578 -11.030505317886494 -11.385054264780649
A -13.678575070421733 -9.8526209945902696 -13.926673413626437
A -7.8750025379683839 -8.9953303071978148 -10.466406318841885
A -11.246469455699135 -10.2664333665083 -11.915994969008619
A 10.066733129315507 -11.740441948103189 12.665560068506414
A -11.951715695774391 -10.979005526508283 -13.720877294477578
A -8.9855162422559172 -11.200462150132683 -9.6449919846472589
A -10.882606327674695 -9.0677561721501601 14.587702185927666
A -11.658528783604188 -10.972656030156907 -11.145443358409342
A -10.283610719571415 -10.915443166664948 12.194964056851031
A -8.2696864396616956 -9.7587107882147492 -9.9468908176451727
A -6.0191026972892745 -7.5880860441670341 -9.2878782457829097
A 0.089710899049905979 -13.355299475585154 -12.163070653773769
A -8.7963772465912147 -13.382092838586823 14.257785517554652
A -6.1303296847907225 -10.820338041909292 -14.540978944273446
A -6.9230586153718257 -13.396428729391864 14.579233476943569
A -5.8211221892250276 -13.011656594980582 -8.70874823415304
A -2.5576238338566197 -11.753229026130146 -14.641630758097522
A 0.12356572403304046 -13.442316894486998 -9.168930629164171
A 2.2134253311797334 -12.139935977176362 -11.861989883371574
A -7.4429583809423159 -9.5132550756365184 15.063167649727495
A -2.3433282225816709 -9.5848498269281741 -13.595267442498741
A -0.21247182736420817 -10.953839987154806 -12.507751546155751
A -4.07693747837489 -12.059389404855247 -12.254127087728911
A 2.772484790659913 -8.8820688724240409 8.5797437178792855
A -1.2007079679269621 -10.62678144870236 12.876115027658688
A -0.65604507554501146 -11.743252577949118 -7.5849621886208451
A 0.63268805731833155 -4.4152153531288683 -9.4957270759414243
A 3.3131493422367022 -12.119576483466854 -13.994071915572761
A -7.7564592954516725 -13.231589568103045 13.908531129507553
A -0.4095620245596116 -6.6426997356564925 -13.486648773529815
A 0.23572965448794278 -8.9603050389312102 -14.756318830757358
A 0.39117043924196215 -3.297497911952314 11.969243447846424
A -1.0915158327901568 -11.76621581805138 11.090665765629746
A 1.9272470499482957 -9.4916381659471547 9.0361047133469103
A -1.8048123764924244 -0.89515269660793351 14.912199380522617
A 1.3068328611409634 -13.666559313363809 -10.963169946914684
A 2.5531492179567645 -3.2119089630657904 -13.313707676757989
A 6.6003706083834244 -7.7365355917293446 -11.700300875184965
A 0.63965246894025107 -7.5928864503888294 -6.2153531192097926
A 0.61213287720930465 -8.9275661525291792 14.480309103265007
A 0.97149625348689006 -3.8740286867669584 12.653509900509734
A -2.6785548352424589 -8.8870297685567987 -10.851347137653127
A 2.647530556996105 -10.569648241056781 11.865124511117287
A 2.2986517734478689 -11.703128699563502 -12.965330134886589
A 4.6231969159916844 -7.3431203077884888 -11.919744114211593
A 13.43396114910801 -5.7827741057188033 13.870260512233987
A 5.0253669173735869 -6.4451288370337325 11.852382535535797
A 7.2410421159321467 -8.1512861847224443 -14.593825368170023
A 9.7002129341231118 -12.12771338641044 -14.058689446387575
A 11.342639367276352 -5.4595638199817031 -8.5554257062655701
A 10.2265106671456 -11.074748818485052 -14.099803965336273
A 9.7579448859006437 -10.941412274492697 11.348324526290389
A 14.062707153059661 -9.7077136948974232 10.885482300629043
A 11.36177298298476 -10.067029449684213 -13.182548145363725
A 11.982062831754632 -3.4600806980405281 -8.0133224593529597
A 12.296503175466073 -10.000501837178833 -12.013105613092113
A -12.873107302039307 -8.4805107874354366 12.347082427197687
A 11.843647572191651 -9.2400694894952355 -13.61481441412619
A 11.677683969781711 -8.1695174453672461 14.978274664689286
A 12.367255848043584 -9.1724847415247091 -11.189117484401484
A -14.749560775958859 -1.3435466720925706 11.195316714245376
A 7.6299270243968804 -13.236040041382052 11.908511765015163
A 11.959587259185637 -8.3862944601884291 -8.9569644363653254
A -15.064470522084543 14.11071343526304 8.1936487286066217
A 13.904947670484178 -13.028057176256841 12.281870547999873
A -12.071635933858335 -3.982129726606932 -11.246286673121869
A 8.6783367890681919 -7.4288258746801281 -13.0677867877077
A -8.9433467658217829 -8.0391497346737371 14.723852889103302
A -13.79701268520399 -0.97049456343644058 -11.181044813435362
A 14.794194483050324 -2.5917291040243424 15.061685710876707
A 12.079515076258144 -8.1639600037471176 -11.006952726482517
A -11.926343307485002 -3.4012930363827847 -13.128577498409919
A -10.614736303980266 -8.5299324262809826 13.178245957388842
A -9.1393587779350511 -9.8130726072880829 12.177212426733465
A -8.074939642186866 -3.3441957795439063 14.385071329662477
A 14.655683033279391 -6.3982032025998512 -13.592397524790723
A -11.771699432220506 -10.077469923394755 -14.124287572407473
A -9.7840856161920939 -4.0661529538533783 -12.782585173969611
A -9.1580892200554516 -12.396969266499502 -12.865745008559374
A -12.42249359633448 -6.7105855811501751 -7.3624981829862417
A -8.9320164331067229 -10.550477540101708 -14.251385110841479
A -9.2199317987581679 -8.1956793093094156 -8.4193981571241121
A -6.9691844548220168 -8.8153332628624543 -13.4417860203337
A -6.7246560729974654 -13.880160773637929 -13.570239361233595
A -11.045534311098617 -10.978594108103106 -12.96274648152415
A -5.4447864608609331 -5.4085110969852952 14.660626589502353
A -4.8211974998928193 -11.2056109588165 -8.1534230397948164
A -5.6224940693786127 -5.589619180426971 -11.66121342351178
A -6.0853777509230795 -6.9308467610733073 -13.525897500133519
A -7.3370084255992047 -10.656168142539586 -14.649396009688509
A -4.8843245267322786 -7.8700489127779738 14.953921849129932
A -7.5723269135559477 -8.0015948363978264 13.939548983540858
A -2.9238727642888076 -8.0180649236727906 -10.357697084829109
A -5.4741005788868193 -7.3601682094307064 -8.2967802108323312
A -4.8277355368681896 -13.897350495625243 -8.6851470813745859
A -5.6263354099710821 -8.1305459332230328 -10.13755523978014
A -3.9008206550104232 -9.0899600442380848 -13.165967055988867
A -0.24284740901423343 -9.561891884560433 -13.428433971585568
A 5.8141287148303018 -9.5878297184824941 -12.074407627478324
A 1.2135398554508954 -5.3079913141259256 -9.2799216919357068
A -2.7026960656867192 -5.1496209237332868 13.466980632462848
A 1.6282822390691922 -8.547502953052172 -10.774105311380861
A -4.0133708718272967 -8.1435410957520631 -13.542894528837822
A -1.1336503559140354 -7.1875920516481449 -14.973386291137395
A 1.1775455980826435 -8.4400803337221877 13.138620279944707
A -0.20303472328576175 -2.2413396415499078 14.636083820413621
A -0.29672554143162344 -6.7255227587983422 -10.903042109662108
A 2.2061655693892579 -0.56466961689972595 -12.385226057575053
A 8.7366308770327343 -8.0618102822949833 -13.890721627450286
A -1.261509779447904 -13.058872889047313 -14.136614362103597
A 4.5712414967736592 -10.4989078924428 -12.591249819731598
A -0.27487079427322048 -3.9931505303334158 -13.784083886019996
A 0.90018033628064764 -10.463971596541374 11.139938520015168
A -0.13996824011178186 -3.6431286499257833 -12.486385929259193
A 1.6906613756144244 -7.8268093848878078 12.536691068751669
A -0.092160421407561047 -9.8864145914897001 -12.257268028376691
A 5.4408960239869248 -11.339114262671837 -12.720781924684438
A 2.9064116478761437 -5.5396522561965931 -14.594667763983038
A 4.4245219093738495 -11.075831965437091 12.074689709374365
A 7.9086763396891149 -5.6608456226108856 -14.268489771548289
A 12.595496291488962 -10.590119940882232 11.933135140029568
A 6.9010355594375099 -7.5886812428394137 11.727652420553058
A 6.3953835471160989 -7.0885318625678364 -14.448442474859924
A 6.2121519450234564 -7.8593901233255012 -12.619446127308668
A 14.888841778100922 -7.8710277446757022 -12.051317092927581
A 12.343549751630464 -5.1962721353056036 11.550549115552775
A 8.3289500382370178 -4.8192837608754155 -14.647097032833033
A 9.1894543907506367 -6.7567856708059715 -14.817683020054506
A 7.5218627518018115 -12.043800123256169 12.408410344296922
A 10.047070200309381 -8.7026718453941889 14.032281820123988
A 6.5673612568382156 -6.63409936810912 14.809396207629758
A 7.6658064034849005 -6.2486739021313857 12.992039133679945
A 14.89694859031939 -7.7822965663604142 12.610543123402595
A 8.1210884875246006 -4.0475196950638423 -13.345102300767344
A 13.25512578324653 0.41343737479028875 -14.076687752640053
A -14.809435994081936 -8.1700507899191201 -9.6445077721640722
A 13.386870856852108 -7.695202083448998 14.646849243540753
A -13.003102643843407 -7.7851471551922167 -13.181982160427905
A 14.013373464939855 0.1356163876203455 -8.5269964346130998
A -10.436372553518961 -7.3566632601836055 -13.59870245280128
A 15.017621693887735 -4.2614795731866417 -11.305353026061253
A -11.371669433841449 -2.7443504416863633 -14.389850639538432
A 14.73204033606703 -0.69143272202271622 -12.725992544412088
A 14.805252157925038 -1.6534037331605087 -13.148994578010553
A -12.313891230118509 -7.9879103765413726 13.076959058174292
A 12.82027276785403 -8.3547884416996556 -14.986205955425223
A -14.857670363840889 -6.4868394521401029 -14.379112478282515
A -14.236293364288734 -7.9450620623311377 -13.212778679958856
A -8.945481022203829 -2.7010114217451719 14.301340855649242
A -11.520997289118554 -6.1230726885293532 -12.4524820213538
A -13.673819176875766 -7.1837019700136491 -12.554607407912931
A -8.7505191666112143 -9.0519298888285018 -13.912575669754061
A -6.9916747799834766 -10.191602265611092 14.202326907726432
A -6.6190276688290339 -9.0066044591665388 14.381078741701772
A -5.8292702243933485 2.1088716333209323 -13.077809116146357
A -7.7285053276521873 -6.9437839835453321 -9.4061837519554121
A -8.4361615705223709 -6.3753971498402651 -14.608824101791857
A -10.175074699200405 -12.54162962270561 -13.274775158257674
A -7.3211621378063514 -7.0570902743847599 8.3480783818219884
A -5.0071843166625731 -11.155368140446651 -10.664223272727689
A -5.6322855210504823 -6.033198823226356 11.755430110262246
A -6.5916262665593823 -10.910968979310084 12.829333260617119
A -7.79434034461159 -9.9117559147257293 -13.929890349421964
A -7.5923321890029447 -7.155080300483867 -12.770113068147669
A -5.6368305396269038 -3.8376353585243241 -6.5650851926584712
A -4.4802689149948725 0.42191397922067492 -14.62539891571849
A -5.8942389630009622 -10.573254965933927 -13.3801136345334
A -10.702972481722609 -4.3848932049531166 -13.071698132210816
A -6.133713153447423 -9.1342435150311658 -10.214429939774245
A -1.083316884992042 -1.4950190941135486 14.259965074552685
A -0.55317155117710648 1.9317899774195975 13.948401634464062
A -4.8201061131983014 -7.339298365687867 -7.1056826145471508
A 0.98843078480591462 -7.4354370584839193 -10.232333814528094
A -1.5412652521367096 1.0761961826150106 4.5436961259601798
A 0.061782841789943664 -5.9670610322556898 13.886628736053623
A 2.6368335829883591 -7.7076490452479804 -7.5009159947100947
A -2.610907078311719 -3.5151801171263131 -12.644653018323011
A -0.72513696926340299 -6.3544271508577221 -12.070808402945106
A 4.9126515763949641 -5.6970528803974236 13.698648976723376
A -0.32327844627475666 -11.383343344103496 -11.516029923832278
A 2.2563976027813522 -4.2057679481921939 -13.0904584750556
A 4.8307119842629644 -14.328995785630465 -12.417657521020031
A 3.4640697378660574 -7.4597366318262326 -13.142320896337193
A 6.3563755990017148 -1.9547320758076479 -14.641517565053146
A 3.5218535162552413 -2.0851336114668304 -15.000391680212561
A -0.21916483103342635 -10.069580123131374 14.730327852267695
A 5.6257805374536574 -4.6612926156574623 -13.198505733037905
A 4.5250665432326667 -9.770680886433091 10.03434638351583
A 9.9970741198837523 -6.631086621478353 13.568011178904527
A 6.0797852340847056 -5.8256962189360708 14.120530482624673
A 3.3633049957043051 -2.3338711829236782 -12.608634538679738
A 10.144812183064916 -9.6751303877872115 13.555115945265356
A 6.5535385570256652 -0.62682902316767874 9.4861418750539901
A 12.944174716383698 -4.1152938746967358 13.456958705285526
A 10.344778857991304 -3.9850140678832284 13.480730025908363
A 14.016466216819941 -4.8713552173117662 -9.8328396180240549
A 3.9128181691248947 -6.403557481893408 12.185442581738233
A 4.1231602946594768 -8.1765583645899813 11.169245610968527
A 5.5795747888460268 -7.3073068549209488 15.009188860709623
A 13.367284502045901 -0.3803761405592424 -7.6207705921144289
A 10.74630335588223 -6.0588516182869219 14.478347022212624
A 7.0841385665947412 -0.62350239751496905 -13.417991069537837
A 14.17810536654464 -7.0379110246315273 14.280396451950326
A 14.622381789247898 -5.1491215836292188 13.639300927426975
A 6.4042917293675785 -3.0657511218920996 -14.30096799737084
A -10.1393119795773 -5.9815379434658542 -13.478900940388698
A 6.8861485732588692 -2.8591131981333477 14.749945567111491
A 6.2953183867005214 -10.705166831721764 13.54359340213534
A 12.007350267834973 -5.7050390647739064 13.719457058836905
A -14.474320938120965 -14.40596583425352 -13.116150177391937
A -13.424296431387821 -7.2717369937996397 13.350513016904262
A -14.60917096950798 -3.8403868831611554 -10.390624367181886
A -14.188885924588151 -0.90987727428774934 10.384942211393774
A -12.319754804900253 -1.8918499930912911 -10.286721085234731
A -9.0990594613507909 0.041601192706081001 -6.2776671055195257
A 12.742351682837986 -1.5496751542917302 -8.6676660750498389
A -11.398251941511065 -1.6270809685377323 14.48200803074957
A -13.591860464170562 -7.2710709318261371 -10.810034291755606
A -8.8159984073500457 -1.6834061342937423 -11.397337948164475
A -9.6854295663025667 -10.511608146109058 -12.926347029261564
A -14.374109149675004 3.671908901775752 -13.050566733837604
A -8.9102177511479006 2.6854683456900195 -14.430986834083136
A -10.209955513074929 -8.0631563796631109 14.475064933034883
A -9.760914793779774 -3.5721420807269793 -13.744333995992253
A -10.367964152337782 -6.0376812297888112 14.43895297005783
A -13.018816736828686 -2.4079968948138357 -13.976377441523862
A -7.3146126266717397 -10.43423294790934 -10.698610974778237
A -7.7645094442962996 -11.735809266275618 14.072891012618399
A -7.2464647346027524 -4.1531471137913156 -13.796098892868798
A -7.5753013100902882 -0.60821831919498026 11.649986204888654
A -5.9993686971773492 -2.7902268895668887 13.52272723656484
A -7.2350358545421498 -5.3153701436225882 -10.575410786025355
A -4.6975172150901559 -9.9439118815107275 13.007496383724289
A -5.6436591920829233 -1.0471477101760907 14.10865276397713
A -10.760584486908533 -2.8729437157710302 -13.605142250776607
A -10.216316455023911 -4.225240354301997 13.733118127653571
A -1.1621859987923129 -0.92922408969410886 13.35853180458372
A -8.3561942372042264 -3.5172033591369964 13.430815982274799
A -3.3708181557580144 -5.8332049419826761 13.870203369280155
A -2.1811935361837147 -13.245206975714439 -13.71746519657818
A -8.677634792704076 -2.8284504300773823 11.654982763999733
A -2.4712711065546324 3.7207828296878853 14.798707929393098
A -4.2796538176679881 -0.18606502624592819 -13.804753823470088
A -7.9423580286067743 -6.3854149447358397 -11.823551186770674
A -1.1215575703789966 -6.1026683319741615 14.54991981531658
A 2.1578062088103214 -9.7096550892945359 -10.891115053308766
A 1.4906053887280784 1.5853212466872837 -14.682311907608707
A -0.38684054575133309 -3.3229496021519505 -11.562293896583311
A -2.4857719510515932 -0.75305393446666535 -14.445636938127935
A -2.2381804056692154 -1.7996623117181092 -15.064225346959351
A 5.4307029596729199 -2.7011773744649341 -14.106360263069792
A 2.574263922418595 -2.9060367117742509 -8.0566502111037099
A 1.8115282640488422 -9.2942881697731572 13.55009787886849
A 0.34573369426260903 -5.1805769216821655 14.439342207058996
A 0.38152932742687706 -1.3143455462616436 -11.990638248347244
A 1.1320321940242386 -3.8473036199173611 11.57989817300361
A 2.1007371231922609 -7.6846768077745349 -8.5091752219666965
A 4.8655143999697659 -0.93225606836737529 -10.083918149516526
A 7.7785826027115208 -8.7041684550310414 14.932655376381662
A 2.0185585432109194 -5.2652064885654299 13.244046156811478
A 1.2851530328983198 -2.831368116874609 12.031281496831005
A 5.5777263011096574 -4.9459558610239629 14.126192529091234
A 0.75899518744943317 -0.94054661637659986 10.507223723229959
A 6.0519327379982135 -5.6659859690676582 -12.998298524796368
A 4.0148074296589122 -0.29537556470863074 14.177255148018318
A 11.701363675028738 -7.4063207053584881 -14.343710676204523
A 7.1390180234302179 -2.6944348520831811 12.07053717418043
A 11.650646793757426 -5.6121203232785426 -11.179927228183246
A 6.7544641656428732 0.35899113671260641 13.149981697466092
A 8.9405617869662848 -6.1020582113447661 -10.572655169682328