ITEM: TIMESTEP
7
ITEM: NUMBER OF ATOMS
23328
ITEM: BOX BOUNDS pp pp pp
-15.08190489966774 15.08190489966774
-15.08190489966774 15.08190489966774
-15.08190489966774 15.08190489966774
ITEM: ATOMS type x y z
A 11.296523553998364 12.935476258370972 -12.030692810701396
A -10.93574254347782 -13.6291324533967 12.550056707257632
A 10.258235779827555 -12.873955432885328 14.606617362628342
A -12.425109774826531 12.148560599425137 11.704444918164068
A -14.288879097534565 -11.535611074673547 11.500431636163899
A 13.537168544409937 -13.158355779436855 14.556604103894255
A -14.64411242331318 -14.02234160158681 13.935000234667655
A 14.601766718080082 14.841368681734469 13.211087981344926
A -13.886325456985848 -9.6279730654645537 -10.71164218990692
A -14.09498611070368 -10.999376786824874 13.839652547132786
A -12.800912549950374 -12.164070457013436 -12.646736510041286
A -7.6162308741308715 13.547561629684884 14.292903788674446
A -8.8746899023283294 -9.5992243099323922 14.02878744978139
A -8.1615193327508315 13.796198081795804 -8.562954071052836
A -11.264387419274176 -9.8466566266361486 -11.618384912068169
A -6.4966931063266919 -13.042606992447656 -9.5131786532560145
A -8.2180167328848182 -14.565092888669833 9.385474686218533
A -10.126972852627274 -12.413603120003403 -12.173671271652152
A -12.349086687626604 13.763124855800314 -9.7047528705599611
A 11.373287651956812 14.214313980292946 -11.881572047408579
A -6.1009850099852052 12.938090289067855 14.354020499342152
A -12.432375053558509 -9.9883455733838549 11.618607370350039
A -11.446306865567477 -11.574772992728372 -14.206399488077015
A -2.7893387304066746 14.312017816056755 14.10012820233626
A -7.256029608300123 -14.523965408722114 15.075481546137221
A -4.9320777028080451 -10.25491224732243 -9.2875925016389189
A 1.3535806268845931 15.064572293976388 14.723126563967647
A -4.5647717970558013 13.036869407967263 -14.955560846289872
A 0.19007459854602379 14.239125176292347 12.85676676560999
A 0.1139560897566302 -10.230540034911478 -14.618486617903708
A -3.8460244038118439 12.242697370879792 -14.750970836427763
A 0.065306943382332755 8.4603232112828 -10.658835780365646
A -0.59815715733900143 8.7388993370569601 11.477010385244157
A -3.6489857356934978 14.778813701283836 13.881200115014275
A 0.083907781885265181 9.2287132347347036 -12.271284865056094
A -0.48108617325522457 14.996053385961472 -14.994442231360006
A 1.996205887730498 -8.7202749642942337 10.611654967955596
A 3.2273920906112772 13.121857825834416 12.952445879498187
A -4.8508540958198187 -12.51405733961867 -13.21830864888185
A 4.6834627450940109 12.960420969624936 -11.955512609819218
A 1.3119667319927184 13.085933267382586 -10.561028044190763
A 2.5669240229266772 14.423453086141947 -10.860946746468612
A 6.9646269121444133 -14.104946275641849 -4.9183911901745976
A -1.5371026240686145 12.865821407847418 -12.750933283137867
A 7.7181971478059852 9.3592828782018458 -12.220014272463587
A 4.6985952063073313 -11.294813611585433 11.89961440125005
A -2.9069484851855583 -10.974153075723144 -10.787514613641928
A 1.0858690151921122 11.949700576164101 13.110383621645889
A 6.9094291426018399 10.166590586977884 -12.08135236274874
A 6.2774253071331678 14.887985408301581 -12.816749719650783
A 8.3996052016116636 -12.343466853390625 13.586538269257964
A 8.7524740943077806 14.450201055929748 -14.03081559044306
A 2.9483130908486901 -13.270185929671321 -12.000099065318308
A 9.7840915557249772 -12.030553987682058 -10.909230483976101
A 7.9730090410114602 -12.667447587913697 -13.611291779631628
A 8.7473913936229 -12.195946880213729 10.266964620333825
A -14.532681606825541 15.029795289958409 9.2944620297488996
A 5.9858376217927347 -12.9557039843128 -14.644777904348915
A 9.6802669112458837 11.846617636225538 -13.173914370631138
A 7.531170542175424 12.866150158168887 -11.889043553764118
A 11.360779989161262 -5.7096740713785801 12.612546869197706
A -14.12975791027419 -13.630655026414985 12.588376708210065
A 10.995334885398298 -14.223629949275381 -12.698098741945142
A 6.6374560682031927 -8.2279239089164857 -13.717505376384496
A 13.685904613189876 -12.446004703546835 -12.323345316345712
A 12.566422480746342 11.135170214236243 14.588467227572202
A 14.724739349860451 -5.0664618559287558 12.417694523222567
A 6.9602277782797639 -12.9597664268461 -9.8632827048125247
A -14.737128156646948 12.728298996885231 12.974043370202143
A 10.009273018771191 12.12301491160129 -10.388447681336658
A 13.551569750031987 -8.5353661549826612 12.901187319490408
A 7.9761383452091854 -11.656902222447931 -13.481134948440573
A 12.802231418430164 -14.708374926008176 -11.968976653818407
A -11.795039760531154 -12.241715226805443 11.415672172436926
A -14.443587273332486 -11.428399807036278 -13.561384882177187
A 14.57010407041259 -13.847072770526667 -14.953394968046332
A 14.275046128204984 -4.608651702277716 -9.5590460696569934
A 9.3743255589741157 12.606589608371948 -13.791895093191027
A -11.699209547304971 -13.072827031823758 -10.817395310339242
A 14.707240760439129 14.116036797849675 -12.747443750842262
A -9.6655851608571695 10.530775389175989 14.166486913038193
A -5.0722463367071393 -7.4256872789399742 -10.977963984302551
A 14.264628712956128 -10.952797739388432 -11.918832372058517
A -8.6583118074467702 -14.353710953558444 10.295693232859
A -8.7355262546988151 14.325402136948226 -13.217833043110364
A -9.9738282812680303 -8.3622804932405899 -14.016433008302386
A -6.9728920030955504 -7.472463008001319 -12.576122590599226
A -5.5833774962479001 -12.4770645838713 12.080931859358572
A -8.2022250972094337 -7.9854621445400227 -12.799361977490779
A -10.047957547905042 -13.700932999493249 -12.163087528271165
A -1.9673159988814815 -11.748358220825892 -6.6053660984562894
A -9.3646848220800187 13.877623668411438 -4.4610197920818315
A -8.412910826183003 -13.750602319891417 12.603326647469904
A -9.9985296653313789 11.796671986212438 13.152250465476648
A -14.036780041456032 -14.23550681662182 -13.661223819592729
A -4.1538605401585809 -13.136999009970104 -12.690755942205481
A -1.8343981831230813 -11.632854533931326 8.916906498775413
A -7.5692801433809151 13.440029868091909 -10.730557950392859
A -1.4379975273499961 -11.549541485239898 -10.880811106468471
A -6.9477246314206944 14.139289664844053 12.429967756373207
A -7.2176837086788099 -12.917990926830605 13.639465207530453
A -2.1044718061797041 -13.382628084689239 14.640730877523108
A -1.0323521505617088 -9.919310821349054 -12.733675012341021
A -2.9671213245349506 12.872323232286163 -11.864828133781218
A -3.8333902564817373 -14.554057347197089 14.482468427411694
A 3.1689199740340701 -7.758745355792886 -10.676413246571268
A 1.5521667719225027 -11.405217268068505 -13.482935318161207
A -4.170767700957442 -5.2426931226047699 -13.456901485195511
A -6.4242692480437924 -12.053278964476529 10.286381289784501
A -4.2647224095443095 14.197265962283092 11.897255806250188
A -0.94786818581258292 14.380029209724013 -13.598540738815316
A 1.3916646524540406 10.874754276884472 -9.8222902759266955
A 1.2924935678576044 11.370923234500838 9.9756817561540831
A 1.5542240921649524 -14.29181724859982 -13.652812530468429
A 2.4224172646037494 -12.946314152481378 14.092205766416443
A 6.7104364397316152 14.367291638495736 -8.0776297502615453
A 4.1694398680722724 -14.752529002271508 -14.895191027810899
A 2.3177715428176202 -11.150376499053756 -12.873974454590202
A 0.93136633765658172 -10.427648976717869 13.440690381870278
A 1.7321985559588804 -9.5552470521294808 -13.999292896932428
A 10.929193912885097 -8.8772461250264065 9.6136300854097101
A 1.2588520205137206 -5.9889698591013802 -6.6210452791299286
A -1.4848158527503563 -8.9551869584118897 15.03968155373142
A 4.9970035755609743 -15.02612446032715 14.513431476410842
A 8.9918376783479914 14.949683537964525 -7.1502078997469054
A 11.051439607316905 -14.179267205867353 -14.452549681123365
A 7.1684056193372383 -13.268220598782117 -13.497671118296047
A 8.5868949874971054 -7.735967497091659 -10.281519138862057
A 8.6096530172027297 -10.018838736198536 -9.6218099451417682
A -14.436920107106374 -8.3797315085724673 -13.403160892851904
A 3.7411874996896963 12.095198431929269 12.800638501058256
A 7.6789145208988172 -14.323495359387168 13.667779154187551
A 12.617989309076117 13.63585026492658 12.814570765843625
A 14.467468215655387 -7.5957903700539919 -12.228826682814569
A 13.854998317746219 14.339739401778273 11.313458107282683
A 4.8602975495352796 -11.671747767106547 14.696585085105539
A 11.517475755179062 -13.359281155553376 12.915219720812109
A 11.44234266067736 15.020395381153037 12.148522845062786
A 13.160030809879268 -9.0953281881589323 -12.50213234050824
A 12.531561270249641 -7.9521078152015736 -12.248516149126326
A -14.739079174418332 12.680198832476584 10.072948554116198
A -13.969090358958246 -11.383809396804518 -10.57243326527121
A 12.766327895637152 -14.878980634829945 -9.7908161243354552
A -10.627649784735659 -10.857483642691633 -14.028895292388956
A 13.521870586567893 -14.861028783229083 11.297480045161429
A -12.158102267832714 -9.3076190178649494 -11.636225665696326
A 11.417688047265454 -6.8985302852228054 -9.5534142021667527
A -12.693574440407192 -11.724101363747293 13.206664758241505
A 13.280774236413361 -10.201938354835372 -12.480614388256006
A -10.421122928056949 -8.193373747257322 -12.848360834049556
A 14.517989004139025 -10.308333736820204 13.115861997727116
A -5.5165716646459293 -11.032419900726159 -11.9259926185648
A -14.5835773219563 -6.8419410581326332 -14.893561472598966
A -8.0542747873229814 -8.4660878691064223 -10.472377365144524
A -10.359939587740948 -6.6439448158486929 13.393464586307481
A -8.7305314124862399 -8.8271939435881777 -7.0320531219083851
A -4.6861055803346501 13.387466019582133 14.270045689046992
A -5.0469008638115032 -13.927853592828075 -12.826038271872028
A -10.206290403360262 -10.980471742877908 15.04988454266166
A -8.8031636371266551 -7.268045780901697 -12.05122351079107
A -7.1873089753041075 -14.57239493903243 -12.415202041598635
A -10.333088335530158 -11.400288634802084 -13.125765814219918
A -7.1475549262041858 -8.9338933280915782 -10.579676428053926
A -3.435992698251674 14.749841052177445 14.917406453051704
A -5.0740791576860529 -12.362388199152456 -9.1386124252589447
A -1.9228664726843934 -12.455773163407638 -9.4890873475439435
A -7.6162862525629897 -3.5035318900011765 -11.406146316169913
A -3.8415842904378383 -11.781843997378839 -14.623832132259565
A -2.5815312233369418 -9.8258776774138568 13.634824493068365
A -5.7839744887267486 -14.534554749833369 -11.079751759681518
A -4.6368724056312942 -9.5903344179444421 -13.347931718271109
A -2.7568604025479999 -14.598105796838048 -11.746087161757222
A 2.2577034045535789 -10.774235425618672 -8.2574776959888272
A -2.4687790516300994 -12.699012824156535 -7.5406986052152734
A -10.691714626130972 -14.530426000949006 -12.159148844928156
A -1.7830398762303066 -10.306346709602167 10.870396845748205
A 2.5165496149075062 -12.082701335748085 -13.651195562535319
A -2.7769759848757656 -10.276712311084717 -11.655469863929333
A -4.3838421074108478 -11.531701072737288 13.465760380894746
A -2.4230418859163114 13.89818787964588 -8.8878958086933775
A -0.1300690468328094 12.519585112172843 10.306530082719048
A -0.21505460808762669 -8.2284373315623895 -11.897716032222149
A 4.2460382291005665 -8.8227623379061448 9.6511653336727239
A 1.9729810999771227 -15.039992550117608 11.067890045165075
A 1.9806408239040514 -9.9325819138548788 6.8542852582300098
A 4.6303513562910679 -10.743695601476755 -13.315404817669535
A -2.1451827713071743 -9.0565786565684565 14.115050994455107
A -2.404694788248293 -11.071076481079302 -8.2154754687466518
A 3.8987518144014057 -12.633075454007788 -9.6571734768614057
A 3.6780115291827977 -10.356865003428908 -13.876293765245189
A 2.2016505687709227 15.024883568286967 -12.737869737660811
A 5.9791872736559766 -11.804626929316644 -12.359009250538261
A 3.5754578730929811 -9.7439854600494993 -11.802828867989447
A 4.6569935620496583 -9.7890159468019657 14.640525279282341
A 3.83051306085168 -11.400843923180609 -11.635159967380678
A 7.0283982481575098 -10.989091396537049 -13.670090222210456
A 5.4910941449491188 -9.9598607633016396 -12.116782104689749
A 4.6045050290528415 -8.6542981515823794 -8.4701780859510176
A 6.7825513431175741 -6.0545906131152529 -13.570981844729054
A 11.491626292374095 -10.043229382317628 -14.944668915429844
A 5.4204124188673397 -9.5463150449991261 -14.752570063522509
A 5.0418371002334608 -9.8299418050884366 -13.205795218730154
A 9.4091855286978543 -7.7145466109561003 13.926680181553603
A 8.2647446053353821 -7.7040457144653329 14.324756523311253
A 3.5630048040138411 -8.5619241283937324 14.818704015739849
A 12.769718351377016 -13.617916296113222 11.183423529537809
A 8.4882322048475753 -11.13908717185533 14.795364420309705
A 9.9269984544010654 -14.523162067875166 -14.451430907553918
A 13.655063416854066 -10.424394676501233 8.7863122411889307
A 13.948606138901106 -12.184665560694286 -8.1475720340979905
A 12.212723054914671 -14.765783316584972 -11.002617733815846
A -13.427819746694313 -8.3216385679591145 12.274433712328506
A -13.867733520610994 -10.837005452231915 -14.769397650980288
A 14.772035897435352 -7.6634618472770999 -14.551485974182729
A -13.809934968345544 -15.037819227053152 -12.164824298132764
A 13.040042183651035 -12.163756247041531 14.954450370419586
A 14.286852780285834 -10.265306003988544 11.970587452055891
A 14.087557539006538 -8.1896087907687338 11.4091599941128
A 13.547398426482482 -3.1655762650581813 12.727834008734115
A 7.7420190556509105 -10.24551540929941 -8.7539245778857211
A -13.649122674231954 -10.506490541662835 -13.750342671662168
A -7.2988780460791398 -10.782090105509981 -9.7561185237381238
A -11.911327992120061 -10.332218038158668 -12.300234603205265
A 9.6133148890811437 -12.249738573358336 12.815778192361899
A -13.318583778734407 -12.450589438073312 -13.703567577620142
A -8.4230036410880782 -12.839397119735583 -9.517831704242786
A -9.806357339411905 -9.1569561179086563 13.531631771466618
A -11.816447564062335 -11.252527530606132 -11.627859297374009
A -8.3170294033165924 -10.351576562608642 14.678327391497222
A -7.2725385695800489 -10.924447438346595 -11.420123044914423
A -5.1396103727370868 -8.0983495592476302 -10.062065226162691
A -2.7313373308288127 14.515217961511485 -11.687729083499628
A -7.8803284814660648 -12.409930496596228 14.305836242657533
A -3.5650553265587268 -10.314424528525448 14.990398469708753
A -7.3574866379881714 -12.659778510611787 -14.871510514028557
A -4.5903848699311398 -13.2233756001953 -9.9753241202950615
A -2.297204031872865 -12.602133783412276 -14.195935757766671
A 1.1313648343305533 14.700957440858504 -8.8325998406222652
A 0.66990011592597265 -12.757820403304907 -10.529838401523355
A -8.6601358809925824 -9.153201086206705 14.991393378731809
A -3.4397437219194589 -10.855621314393018 -14.278801828927458
A -2.3844894239943271 -11.15607075240043 -12.497180768179831
A -3.6893844497074468 -11.514882205813235 -10.314751717187523
A 2.0918288896830006 -8.1441965628614064 9.5762169076651293
A -0.91438907730401642 -11.283319625177699 13.666036975510915
A -1.2025742602058462 -12.480866595931708 -8.790579242421181
A -0.27890522562413866 -3.1614080069701695 -9.2296219360118368
A 3.1516721446236948 -13.147141647375214 -13.605052157585908
A -6.4542212619353201 -13.152321026924843 14.597150483384937
A -0.55988930634861056 -6.6927694195298582 -12.704030603087208
A -2.2636941834686399 -10.876893399387805 13.626887305874016
A -0.72181321643000929 -3.6184746349645587 12.704892192400621
A -0.91403277080918621 -9.9689616855696901 11.24224229090734
A 1.5511572209228546 -10.551203065735049 10.37969854390767
A -1.6997683011095841 -1.2848536920739169 -14.915001572055676
A 2.5958942486779293 -13.20701350044552 -10.292356718422782
A 2.2272190051430991 -3.9194745980036565 -11.819907320364926
A 6.8963904865314509 -7.5714638111725918 -12.968789395869537
A 2.2985230837633939 -7.6431729491334064 -6.4071827733326243
A 1.0809541266963261 -9.4988175159058095 14.236526766667597
A 0.98287829872966481 -4.1585972396726065 12.257636357242211
A -2.3649642151685466 -8.2229858767491155 -11.511197543467986
A 1.7663288215110557 -9.6788077584751555 9.5419367803326161
A 3.1970291942835973 -10.463106393568735 -12.545495825775603
A 3.8223520345037825 -7.0491178696831138 -10.359271536443499
A 14.554666934535351 -5.9545966487464881 12.898470652272177
A 4.8578026235386815 -6.5241652487654136 12.581728865498029
A 8.7099437840317702 -9.650645804220316 -13.965783108011475
A 8.7991661805647627 -14.85156772260533 -13.442699756523167
A 11.004959307983968 -5.4032142108816128 -9.5659661279618913
A 11.05907811560432 -12.023211301668727 14.713717112231691
A 9.8729020769619904 -10.554374980113831 9.9497396671369778
A 13.354109168269268 -8.3034030115869228 10.548808451606266
A 10.577956289203422 -10.231329541973158 -11.978263815457847
A 11.935802956771198 -2.622469628422706 -8.1194638972802373
A 12.312955685881464 -12.012517361948399 -13.048497983819509
A -11.54511267163954 -7.7349997182311361 11.376530442256284
A 13.2825956108348 -9.609866591993578 14.516430452498131
A 12.194667555666729 -9.1022296858283891 -14.543877581908365
A 11.734623223856202 -8.7678122628432185 -11.825424234404919
A -13.398847978731752 -2.3708433018858592 12.563824804994189
A 5.3784797887577618 -13.711643458217422 12.304273260858212
A 12.043378466206871 -8.8418304579275713 -10.42750099428978
A 14.115831842351479 13.856918406828726 8.9989926706567083
A 14.475938144164438 -11.163187834918828 12.425348605474593
A -13.447401951648994 -4.000825955617711 -12.281248942058932
A 9.7163609255587229 -9.4994947482648513 -13.835403886873685
A -9.8017755123626458 -7.8019790795107955 13.748099070421288
A -13.754419181429931 0.074046972284421378 -10.392779378526566
A -14.743075413791441 -1.623649591375292 -14.146737970497766
A 12.683005252139427 -7.8592598020952389 -11.231983689686219
A -13.022809721946407 -2.9261064782732364 14.680364323682458
A -10.620630339943936 -9.0356317459943121 12.853763003919424
A -9.7195456254452548 -10.029775944677448 -14.769326657111723
A -8.8143988364903194 -4.6180451398755817 -14.95429169297133
A 14.789712204274611 -8.1603629863419673 -13.039284452402926
A -11.891370820131158 -9.1781810119732938 -14.843571329935379
A -11.331599635587599 -2.2170295665945887 -13.57401651644469
A -10.29001550463512 -12.092444821697766 -14.362159360218506
A -13.31345576516437 -7.4041718243400032 -5.314792816833485
A -11.464424054307054 -11.08681515529905 14.952021380954054
A -7.8263737345754407 -8.0189528417036549 -7.3568655118762312
A -4.8181422226933028 -10.032239974949347 -12.356894491300377
A -4.7094871197351642 -13.407382746028858 -13.803098698688798
A -11.642425521324114 -10.649671731878264 -13.353438141412639
A -3.0836627727648618 -5.9766983962678291 -13.627261921790353
A -4.1908333693836957 -12.912049576354915 -8.9461505088856619
A -5.7664757170997989 -4.4998684419929162 -10.300910689765619
A -6.8526586652767696 -7.9149106711710919 -14.35142745468268
A -6.3252950476844756 -11.122172685519111 -14.124333648189964
A -5.4405403999011215 -8.5489749214626336 -14.996376377235336
A -9.2764315851623724 -8.5899614202742001 14.251590133799185
A -2.1100510759042748 -7.8719082262942983 -10.466369300486688
A -4.7851759045234132 -8.8024376159963911 -7.9137669892068212
A -4.0499991140420679 13.736189009431982 -7.5652601390005723
A -6.6174023810546192 -8.5037137897751602 -11.726364765323581
A -3.1553949036694591 -8.366143396276895 -12.193902098764076
A -0.45005339935413929 -9.1472079797848966 -13.320571051114321
A 5.631584964861462 -8.3531525728383489 -13.305843886752506
A 1.3843328274689644 -4.0975408709176087 -10.947875864876325
A -1.3936205139649884 -5.1528359198091174 14.898614533137922
A 3.8604944516167059 -7.4429687405774754 -11.357874748098375
A -5.4080792767370873 -6.071668870218379 -13.042676162054251
A -1.6081204336474679 -7.7154561891374369 -14.055013282833622
A 0.79412499945721171 -7.3489397207898266 13.957697196895058
A -0.96952973971397272 -0.82328565655011432 14.606265037689678
A 0.87593599053004345 -8.2017640881973541 -12.135271487822262
A 2.1436091414970986 -0.70524133932614119 -11.296718306702809
A 7.4868476190252577 -9.5248456428044896 -15.028891299487613
A -0.45795343781281506 -14.987417726154053 -13.105287563120811
A 3.0094422712585795 -10.550814988676311 -11.505756998112199
A 0.65469441967176945 -3.6267964333855067 -13.532969645775673
A 1.0075508898945527 -11.557789839675877 10.45640480183209
A 0.082598334919388255 -2.4213474373014581 -12.44647691701744
A 2.4234367614828334 -7.8976849643905096 13.358267935360947
A 0.05686542027113696 -10.085166967584303 -12.460759484301976
A 4.3828723056724614 -11.784620086892138 -12.438307359048402
A 2.9650896998319487 -7.0273261691535707 14.721585012929868
A 5.6870094729283469 -10.367653210149475 11.840566572896114
A 7.191493972327625 -4.8945038639617042 -12.958233613491675
A 11.847576127011385 -11.2373157050337 10.926580724225897
A 6.8523253177763355 -7.0537345309572084 11.645998147642549
A 7.9352384717143645 -8.5492827679961376 15.071628213266569
A 6.4780708612709228 -8.4153748837327793 -14.80498992247025
A -13.977199084633646 -8.8939273122111775 -12.626569064210068
A 12.051517079368619 -4.8272839910272243 11.924780248230496
A 8.0621449803822127 -5.1248255762910109 -14.88175270898307
A 9.0055075692115896 -7.2581235003766462 14.87135653064245
A 7.6207695059211256 -13.902543896376415 11.002460695780581
A 9.0723276527451127 -9.911252281061909 13.920218176323804
A 5.6491901560155329 -6.6852967767900608 14.33897723313023
A 7.9334574194772909 -6.60673344533408 13.883852221452567
A -13.684695963646405 -6.3235232739161953 11.809165321677829
A 6.9719758614931928 -2.8874577881385917 -14.39029875609423
A 12.713214594537884 -0.60476549143594516 -13.678172093982127
A 14.523433733209918 -8.7839486233135204 -8.5297863494533388
A 11.780807730608924 -7.6334151081604 14.964032819123402
A -13.672769364825951 -7.5715804290244284 -13.527714822801315
A 13.96245215091299 0.31192619836062396 -9.4875995677156393
A -11.325957323288549 -6.6543956439053975 -13.67834396538094
A 12.290452337322476 -4.2998460499806352 -12.627529047961898
A -11.958719934306593 -2.5164445909801048 14.693323720950513
A 14.900138488305299 -2.0282634618610866 -12.198585484264102
A 14.31032116918416 -0.92429618390158652 -11.899549930976528
A -12.64156475691944 -8.2550780790309535 13.713703046482417
A 10.208322798424858 -8.8551214479295837 -14.602471273423243
A 13.75182224898113 -5.4311241404625692 14.778200409752898
A -13.440622504091955 -8.8563754135361989 -13.479321432228433
A -7.4285583797699202 -1.7378024083937176 14.470834634660321
A -12.115972065795468 -6.0206068554250995 -11.926637139110133
A -12.73589937717963 -8.4971353826887679 -12.837774293559448
A -8.6613056354930009 -7.6984655222862219 -13.955986052344288
A -7.4965916801106269 -9.6477184510770204 -13.195474471389403
A -5.7319882806172178 -10.138037059425683 14.663646975048829
A -4.6250355939865884 1.2647350856514845 -11.246466426193296
A -7.1745473975022414 -4.9756606038287323 -9.2596745492424031
A -8.2934411454068613 -5.5878535350625071 14.767969359333192
A -10.951206986647962 -13.402669469864851 -12.500144338936209
A -8.2859676712798702 -7.2524563179848567 8.1954949255057095
A -4.6841615393056504 -11.877004803252676 -10.043524836453074
A -5.143824523567921 -4.7371927488047829 13.717875649319634
A -8.4519570990229926 -10.378008586917385 12.199159415399578
A -9.0189862275440191 -9.8618104417859573 -13.216224700449471
A -9.561850014145838 -7.7755145562075647 -13.285469783785956
A -6.4550936226801943 -1.9187526733898679 -7.2429799266832671
A -4.754996125136028 0.30357943537322379 -12.298772358613428
A -6.0791073512266571 -10.03831635396733 -12.352742593114035
A -12.252367633696192 -4.9429583877182957 -12.921315749331146
A -3.9204687035813994 -8.2271341205313213 -9.3622415989645518
A -2.6023702218527367 -1.9919783525027142 14.211511588439448
A -2.2141892766387015 1.7016787853652255 13.082650080275766
A -4.7373845314734542 -8.2895817910586196 -6.6104337654917851
A 0.93228300576322742 -9.3807725281428613 -9.3476944677312819
A -2.3877021656447197 1.3595234952760273 4.0310717148435877
A -1.3836214240503162 -7.3965121910371607 13.285965688549306
A 2.766298503544967 -8.5103766641645144 -6.7963718638781634
A -2.9618120944244368 -2.2532343485698623 -11.6939221165938
A -1.6868086870658474 -6.3889429904734376 -12.639495304404292
A 3.9223672372283223 -5.6398760422053424 -15.053754849181688
A -0.91130145134524021 -13.176729625144025 -12.260015172255825
A 1.0296667297328128 -2.7464760880441408 -14.247844778809821
A 5.201533984658627 -14.699643835243807 -12.633061749779014
A 2.0174789946126972 -6.0697608750095933 -12.602446514348937
A 5.0961134470869913 1.2044766078845006 -14.260782028975266
A 3.1694151835125917 -2.7926561588613907 -14.651173245601491
A -0.50600765713003604 -9.6973493858789794 14.644638732013567
A 6.1311518899233874 -5.2149008172385569 -13.315382548128031
A 3.1389348805699844 -9.9584732920633403 9.3332048250751338
A 10.858168509631181 -7.9989973864342643 14.7389409018667
A 5.1998652163896786 -5.6771922167457332 14.993299581321041
A 3.8162656313096184 -2.8673812784309534 -11.279682604914553
A 11.451524529177163 -8.7268813240796383 13.065931246941883
A 5.259391927132488 -1.2478759413765363 8.7632289635927183
A 13.098282501705025 -4.7924965793793763 12.418515540717561
A 9.4367134393493117 -4.638045189028877 13.877447937306439
A 12.496298047555698 -5.2727319523071694 -9.0321730690756343
A 4.1549857902711942 -6.2541815617218219 10.855647631194712
A 3.9866402039754023 -8.465915285143323 11.562887549212313
A 6.4074679912858352 -9.8068102935241814 -14.840197449812379
A 13.058628635571996 -0.40300986593144972 -8.9379315320237147
A 10.718438602268773 -7.5231288289980878 -14.497412973872303
A 7.0765685399920937 0.037915139625613457 -13.419127334825703
A 14.756578774242508 -7.0833238139493524 14.736945739387762
A 14.529393189316695 -6.2137105947795286 13.876066224338414
A 4.3306237497468247 -3.3442508219047609 14.28275560476278
A -11.838293223817008 -4.2545078829879701 -14.635783709775772
A 6.1605456937670127 -2.0056718886060678 -14.137097634305277
A 5.9973756847158226 -9.765511679509002 12.877427533840192
A 11.94332601123187 -6.0086030150739802 13.690485184458959
A -15.005807584424906 -14.453076988461058 -13.177088673349289
A -14.106652760538884 -7.1531624844258328 12.729621268720241
A 14.859060444078475 -3.9970534125299872 -10.114563474461539
A -13.784811842999511 1.5619293877793992 10.497042461576058
A -11.289029008345983 -3.8386777876972245 -9.5705135339665137
A -11.195780106087492 -0.30672962707511853 -6.2956415942104602
A 12.797582534581958 -2.0983803153369496 -8.8159854803516122
A -11.704405706145097 -0.22320633972115972 14.463161026766823
A 14.782934231927385 -6.1067281042496919 -10.616553335150023
A -8.5537854497533132 -2.5068940496491283 -11.337128926696957
A -10.377218714125524 -10.16885019975309 -12.004843707746844
A -13.715746928200378 4.2507071561287084 -11.673150331326594
A -8.4491347922174587 1.8096995667689864 14.904039342460461
A -9.8871181945123929 -9.3038039411232454 14.664349240103014
A -11.45087774578627 -4.6643128789080892 -13.707312465577324
A -9.0361292009120859 -7.6550923893232161 12.376581092695364
A -13.890493753738962 -1.1682527636426336 -12.68738631059257
A -9.2575282397914709 -12.208696195935685 -11.473719380200288
A -7.5136423354119302 -12.259058101814373 -13.567643694367895
A -7.8018111729247455 -3.5311761658146721 -14.650115624465892
A -7.6826769385402907 0.096456287500391424 12.329910778804772
A -6.0837626509032363 -0.94889837198197347 13.087909275381953
A -6.9499831265244572 -4.211920876547862 -11.734416065383634
A -4.1810905146219923 -9.8989942785373479 12.120640315808565
A -6.6764004395930092 -0.18318880342226418 -14.414340962652275
A -11.213031786860851 -2.7176893565161149 -14.440414268396964
A -8.3685608215606848 -2.4867107780282889 13.516958936472102
A -1.7307203504826094 -2.5417107612651297 13.775419574187559
A -7.1876763762099625 -4.0504986175855224 12.812223479882753
A -3.5214681514799162 -4.2480126699912981 14.163184887803318
A -2.3558878950971178 -10.46879106268039 -13.501182134636954
A -9.094870722692713 -3.3086730560788382 12.724317985414896
A -3.0078520018035735 2.3209286030393557 13.051034283634003
A -3.9624929670680258 1.5419159714915258 -13.633741964175965
A -8.1280128002089036 -6.2564741140653526 -11.888077630881472
A -1.8392976006242199 -7.1892420549920422 14.776512371007952
A 2.3040090034965819 -9.6191625344563505 -9.821876093051193
A 1.4213601604568158 1.0533295744343469 13.963363953564858
A -0.79861764617794784 -2.7718607663138739 -10.765112398100484
A -1.7777009810405682 -1.0678771903497302 -12.789689899120654
A -1.8742666155992396 -0.22062688439333933 -12.215091415879073
A 4.721698252076556 -3.9991829935611616 -13.181251951062766
A 4.4330714037420602 -3.1793772719605844 -10.247939260628645
A 2.1319154060808021 -8.1891220567648109 12.426810729497195
A -0.17793006133116387 -2.6019240387616218 14.75569520927561
A 3.2181514119180155 0.11806005285704584 -12.847305717373164
A 0.78012812807399401 -3.7019581016302099 11.108519103684321
A 1.7023522466034067 -7.9057500888098353 -8.3080271298650388
A 6.1665151220022523 -0.85797372771096736 -9.8241222399190651
A 7.9802579525599926 -8.5459983972251212 -13.773547327878093
A 1.932147663747694 -7.5026070838380772 14.141102131786019
A 1.1274952504781546 -5.1007491630853812 10.61343090458149
A 6.0262701717300606 -4.1369607924524319 -14.752034511494463
A 1.1079405409291498 -1.1797115773047417 9.2156021329799174
A 8.5574231110028904 -5.57132425919756 -14.085861911618055
A 3.848504832230137 -1.5836074590601621 14.927922057336902
A 12.111017982055156 -8.3420498638400442 -13.569776644397852
A 8.0884881564746003 -3.187905539973594 14.389334428682139
A 11.621510652197907 -6.094401079540301 -10.480258918626211
A 4.6978867564088969 2.772210724502719 13.324595931813105
A 7.5519084628935458 -6.8275798677299049 -11.455037234874588