ITEM: TIMESTEP
0
ITEM: NUMBER OF ATOMS
23328
ITEM: BOX BOUNDS pp pp pp
-15.08190489966774 15.08190489966774
-15.08190489966774 15.08190489966774
-15.08190489966774 15.08190489966774
ITEM: ATOMS type x y z
A 12.680309506411776 13.56049007746998 -11.576531909085862
A -8.2818917325985257 14.238389414453593 11.487872210495667
A 9.9679084327721501 -12.106616976634216 13.869106551886492
A -13.79354713093579 10.347248350857638 10.920889491330403
A -14.858950748021947 -11.155206551151776 14.020544066664401
A 14.397950589928044 -11.734607901841869 -12.996336172441882
A -14.378675957274988 14.41380014030668 14.82643775533603
A -13.607058313408777 13.994286808189198 12.155343291574951
A -13.112786034054469 -11.550095502377236 -9.686262365686126
A -11.868744880880902 -10.624173923833544 14.77129968019071
A -14.185982429471547 -13.755928005509761 -14.00234388462755
A -7.7016984915960922 14.052949412976959 13.459669542585278
A -7.8397721480017273 -11.882433397677183 13.420753514290165
A -9.2273456682158219 13.165904128039246 -8.0540113061569798
A -11.721659812983976 -11.049452439218561 -11.271175735088633
A -7.3483435721408403 -13.825564594408167 -10.608773259856539
A -8.6647287586999884 -14.608461051358676 9.7023394914615011
A -9.5819538121475212 -12.139890543328303 -11.634431663706028
A -12.111019145533193 14.938186421228663 -10.291677550733933
A -14.933430893956672 -14.693386404704519 -12.321608334678007
A -5.7076903618604158 14.504161541653184 12.600690349435048
A -11.081090667770113 -9.3778523115197334 10.715941560875644
A -11.160856121860101 -12.259763861937614 -13.002115793827215
A -3.7804126615079294 -14.359767796202895 14.358517621113435
A -7.7637289900322797 -14.631982977954129 14.805408487159763
A -2.9302834212708571 -10.505356896531444 -8.0715474005949552
A 2.1601826299777529 -14.890911791372911 14.006139613370941
A -6.5133689725644155 14.962007530076153 -14.139178593466065
A 0.079605059464843905 14.426593474524525 13.50648593245737
A -0.68473956326326268 -10.067007525372894 13.811810538838669
A -2.0813482646701749 12.512199535332 -14.212902473329162
A -0.080856677085683504 9.0841103162540708 -11.991336375043756
A 0.8496507648880619 10.426324352942586 11.76268707115336
A -1.4779200747378713 14.883054095628159 12.798030045043193
A -1.6344034703571648 9.6526233004319977 -13.041289980675973
A -0.86889516712148185 -14.033894024771865 -13.693845436303627
A 4.5867471877500581 -10.583698666903556 11.61708969026706
A 0.82276695569594205 13.745740756367061 13.642945940338555
A -2.550921772722222 -13.092457493083732 -14.269631666046029
A 3.5775264917536611 11.958287674314857 -12.86302359517205
A 1.9254991382863631 13.130065219078974 -11.375262093344912
A 0.90772166763054285 14.571557416214025 -13.164194564580121
A 7.5287780871254819 -14.390676043478706 -6.8806814118801114
A 0.030055658339474722 13.576255790498351 -11.779325541834188
A 6.2394843049659352 9.7357536268566989 -14.988218904805263
A 6.8803657806567751 -12.385410805729556 11.824003152895907
A -2.7472556501029439 -10.962412622570987 -10.833731019354875
A 1.5606607640297769 13.807031442737273 -14.705127902786261
A 6.8759782466770663 11.382203849303167 -14.253789430534182
A 7.2364480679810113 14.972136787279334 -11.219200090719895
A 6.9739104954057218 -10.672074050392862 14.198956960896492
A 9.1278783000124282 -14.769444393096014 -13.943556812627623
A 4.8321696653762736 -12.346222161782228 -14.3248620437839
A 8.7808362432272791 -12.831678744803654 -12.538640159834982
A 6.7360503761273192 -13.071329949605738 -13.283114652240574
A 10.519570964185611 -11.348018458805623 11.138282096496296
A 13.317568965297939 14.43851648740846 11.771381155365454
A 7.3908140700788341 14.691253947275792 -12.228612812688388
A 7.1810432899552561 14.312547655100424 -14.362529414709442
A 8.0391684185911547 -14.819027024455158 -12.72752896734257
A -14.955578255231931 -7.3347166070383336 12.169988652288152
A 13.913255008602492 -13.143336887119622 11.835695997497281
A 9.6448615371004838 -14.782302251038484 -15.026147675783397
A 7.5830600056812294 -10.817408648135237 -11.863737142305709
A 13.803082149480563 -12.864962997542182 -12.009613403350869
A 14.092369339379307 13.319592470796778 14.873536140400732
A 14.848205688407203 -8.6230975151545515 13.184903739279861
A 7.1213578127564636 -13.491115112022833 -8.2191929156126626
A -14.392211604237959 12.395814926786386 11.545665680474281
A 10.752439557077532 12.92706131825558 -12.181313616930622
A 14.735669735793149 -9.1938623924520027 11.736215455154468
A 8.8435826136384694 -12.284906557244003 -13.785658160720597
A -15.007748113365798 -13.205400656313529 -13.538400108245218
A -11.793406877976881 -11.402929385523759 13.379544961377869
A -14.497123686195035 -9.7879282351387307 -14.089458020609928
A 13.709050372624594 -14.196515347228683 -14.282234155563291
A 14.221098533509789 -6.9527846599419876 -12.166959154026179
A 10.250285962492899 14.601667896303153 14.779709848597856
A -11.100715604854352 -13.926919873010643 -12.287774373769878
A -14.525567080545031 14.370087097232698 -13.517107603986172
A -6.5494504572162633 10.894010593846359 -14.9483722457369
A -5.2253073177599099 -8.4061495464636025 -12.363582990143172
A -14.958848624950395 -11.214751302951713 -10.560438319435862
A -10.210139648452047 -14.180835931724287 11.596137194155858
A -8.9370744640599948 -13.979530553537103 -14.045670665925547
A -11.737220839649286 -11.558761476129442 -13.648536711065493
A -7.5896248859077868 -8.7438241205757805 -12.525502311139217
A -6.9964166898801317 -12.38076156545997 14.626321264720481
A -6.8783442866648317 -11.100771075147183 -12.942478286230271
A -8.5449870010940767 -10.770944618113854 -11.148064554137633
A -3.6657192435885464 -10.815387073913616 -7.1969422104532415
A -9.3938792228542098 12.946720208984953 -6.1033852602392011
A -7.4153666068486404 -10.960269450712586 12.855072680595448
A -9.1203234919968157 11.686023112284268 12.58753309683374
A -12.381305252433624 13.58453692445471 -14.552916895042367
A -4.1602529809553515 -13.013248967019607 -12.084711950125916
A -3.8832624929532682 -14.203399272816785 9.4296304106661157
A -8.3723472135751464 15.0727789934301 -12.349800230656305
A -3.0336580400956161 -12.301944590028494 -10.68308343547203
A -6.3112065547749463 -14.783918534830406 12.054309038882936
A -6.0671094405780313 -12.200522055636853 14.981904871889407
A -2.5104555772805996 -12.72609047087445 14.956354647882751
A -1.5084741195257751 -12.60632196837396 15.00326426744004
A -4.0064773703840553 13.185206173854866 -10.169038981792479
A -2.1926094011750545 -12.107848564169082 -14.417576117316731
A 1.038900736906567 -8.9881770337894249 -8.2564748949380888
A 1.2157239092638805 -11.741495548978396 -14.590117193604897
A -2.0460371568974445 -6.6627658675137598 -13.553025186351693
A -7.2720830385691295 -12.627315586451882 10.251872837741352
A -3.7334536537223766 -13.539490407520029 11.075374204733428
A -0.90080613695772382 -14.043511160460437 -12.637314158349445
A 1.2492330280254365 12.196835501054021 -10.06142656371062
A -1.1541720610667776 11.771143822443566 10.048852106883038
A 3.1706702011508732 14.927630188253691 -13.606736967040908
A 5.0351207356991958 14.824979627205215 10.847913992509389
A 5.8381048677293101 -14.289654304074901 -9.8036846513280302
A 4.1371000288570858 -13.01994229538542 14.898127874062112
A 2.3646757899389876 -10.451909717835926 -11.646965800530333
A 0.098431916449735105 -10.816057895860622 13.579506714711208
A 3.6057795650621087 -8.7857460979285982 15.072186103183705
A 11.311757144256752 -9.6372785073312972 9.9453324784302062
A 0.1695901040557829 -7.7384358817234977 -8.1411352632925595
A -0.12302662570496635 -9.0217914516355773 -13.18823961507495
A 5.8723255599627366 -14.528984014865923 11.86371038237273
A 8.5559029348862445 14.425834773810482 -9.0271600065158673
A 10.666507377758004 -14.48711245091028 -14.636891575959792
A 6.8871990193896542 -14.589490141902806 -13.990209030001544
A 10.37376993489049 -7.9172435974176656 -11.673761033804899
A 8.472166222041702 -10.051397698360226 -9.326625431032987
A -14.829535601087048 -6.0808256434379313 -12.121912680129377
A 5.9634950089301118 -14.046885444379551 13.377815677774128
A 8.4028120220605995 -14.366838418088767 14.213949384678948
A 13.763285464490851 14.611176211411744 13.392066903173077
A 13.331959578761847 -9.0691524912625319 -11.604496235614985
A 13.095282285335282 -13.931728908480171 10.950227472141901
A 5.9694346813045644 -11.339732710365913 -14.380726862844941
A 13.315001908211197 -13.26125533785415 12.768207384933072
A 13.952774664105466 -15.003392451709853 14.28178016351521
A 13.114003051136191 -9.4067292866941141 -14.132397650554969
A 13.078329913499584 -8.468697434068222 -12.433661051501497
A 14.424685033348208 -15.026473936212 11.42961743943069
A -13.290556027138692 -12.562198192419215 -10.842074097038534
A 13.029405793835759 -13.595159800208259 -11.73092423918181
A -6.7120547344371886 -12.166065980417146 -10.063672760291061
A 11.272014352264312 14.928399896995021 12.102252811307398
A -12.008626287231131 -12.370789300080137 -14.320845183345131
A 11.329018798185476 -7.0439503255212212 -10.845048036588457
A -10.105118752480641 -11.997633498560379 14.513607769573033
A -14.446843263493708 -11.66493096823819 -11.344069909272319
A -10.536103897569102 -10.337796652583124 -11.794657407458327
A 13.775864806817946 -8.564753432692001 -14.204717495442097
A -5.8428814305706203 -10.217165669034229 -12.869851250903162
A -14.052314168086969 -8.1642113065206274 14.233100961148338
A -9.8302385444369502 -9.4595676639571789 -11.641098109540636
A -11.207784863242271 -7.5142359566443107 12.6640548494772
A -8.635893016993835 -7.823972257272156 -6.7356760570460645
A -6.108894396597961 12.85051208335258 -14.763139646871551
A -6.1483594035857392 -12.778399437594969 -13.546816616163277
A -9.4620315701971744 -11.624529781650285 -14.960543325959685
A -7.8213257701002377 -7.5981410028942049 -10.070544412445569
A -7.9487010669882157 -12.272644758006654 -10.693273544961189
A -7.5604149454276213 -11.460819841972754 -11.710307851409004
A -5.846321153197799 -10.436043888956771 -11.776265030806986
A -4.8898885856051688 -12.951154421676179 14.941391955738945
A -5.6105774387329026 -10.767375303628654 -9.4286232651012458
A -1.8783831418757249 -13.071492642052098 -7.9410016795892879
A -6.8668399118802421 -5.5394610930188746 -11.386604668024422
A -2.427290262370648 -11.261112653959103 -15.049533169121275
A -3.2456780160036374 -9.8732616923642649 14.149434380348252
A -5.3760834601919241 -14.678211098524095 -12.455825951405412
A -4.8716929724603624 -10.69776628472647 -14.883488145322408
A -1.4377003648122215 -12.187855231953215 -12.155365723703746
A 0.88358831021456818 -10.423676842562955 -10.178266011275756
A -3.6037721645214349 -13.291294301361269 -10.290262610523206
A -9.4650347075424399 -14.928269302674348 -11.038166190013731
A -2.8600849738741831 -11.811690621204507 13.348262759128797
A 1.3656035381038043 -11.124853162458294 -13.663723698752474
A -2.4342875314859866 -10.626615193162218 -13.053007516843591
A -3.1164811398996379 -11.574544985837788 14.397036659438591
A -2.0449091238423067 14.440550242158224 -10.718281929122265
A 2.7890733364477933 13.203468905794528 13.626436051785353
A -0.54270261805775377 -8.8378882951717674 -11.427798955926567
A 3.6545395513981629 -8.3728216750053477 11.073497071406004
A 2.7504000382038374 13.646758760136855 10.451016094832287
A 3.6761914185637274 -12.757745089592511 8.2784972385196784
A 4.7176391912237889 -13.837968207402961 14.872923781510753
A -0.74031075367198118 -10.498260719767391 -14.220410976729584
A -1.5484152900582424 -13.026647292937771 -9.1114699685681462
A 3.197314375335103 -11.705166614400591 -10.393793281309085
A 1.8229191206946995 -10.004298288282133 -12.651172992219106
A 2.9636708625252401 -14.362556162886698 -14.434287192721632
A 4.8438108998461704 -12.905302361950019 -13.199064987798531
A 3.2079153857182248 -10.470946828697732 -10.550797896946081
A 5.0414427240843009 -8.2870797216995911 12.766621655564794
A 3.1035067292332981 -11.617150893195394 -11.771319095139058
A 7.9637679580306022 -10.824778274736417 -12.793972436830989
A 5.6792227187150486 -10.673038546346271 -10.750396564174954
A 5.4116417809932233 -8.7693926038484218 -9.6325718683934216
A 4.4705200322819527 -7.7807065328669962 13.724444624605745
A 11.024763890269504 -9.5642992614819065 -13.082847413627615
A 4.7824626984723215 -8.1152780422506545 -13.556734526161694
A 5.418069375348268 -11.357899023827937 -12.923323432936787
A 9.6296296246461939 -7.7344909158010511 -13.562011905087221
A 6.6249782291531298 -8.1018051933850277 13.725713434631608
A 5.7039664053716246 -7.7476819654349898 14.177936580393999
A 13.678832447325231 -15.016308040360322 12.461475999084959
A 7.9135782707068385 -10.667318650026852 -13.85067821215879
A 8.0219088599391277 -13.313720176246196 12.963716574916612
A 14.81301718692845 -11.407081644728907 10.654115921150156
A 13.583814725378836 -9.8661541795125522 -8.5229589704320148
A 11.196038448746341 -14.02787533929661 -12.26339642570826
A -13.807055594208668 -10.312384252392903 14.30943150443828
A -13.384595170907636 -12.143773570059066 -13.888749938502647
A -13.645526307026341 -9.0886125095782653 -13.91258900189289
A -14.077997564628086 -14.481900016796871 -11.742326434073705
A 15.027811075729723 -10.212026500082358 -13.364027844716519
A -13.903107330415631 -9.1249773734436133 13.957819042239919
A 13.261983197542449 -8.10333216063915 11.498482023523643
A 13.792020421814813 -3.8125389495769531 11.754785474314374
A 10.106006488866216 -11.944767068372951 -10.023442906619358
A -13.52951066155166 -7.914626269615594 -13.896512277433638
A -7.9033800211234144 -8.5413724479159328 -10.416569840367933
A -11.9281511416731 -10.837882595517375 -12.371288018237882
A 10.092947470137316 -11.469504767268722 12.63873432644321
A -11.136251484158715 -13.058305073283693 -14.290683920410704
A -8.472172644830394 -11.791684687339311 -9.1210165334293674
A -10.524587065969065 -8.4230853911408872 -14.02847083916544
A -11.521678959345969 -9.9608387062926411 -11.745897145053146
A -10.641054056457577 -11.267914436695763 11.316808270412029
A -6.6758289910516924 -9.2292199739804293 -10.816718437853126
A -5.0567733502932839 -8.7559400274675685 -9.9163630695733964
A 0.13782778867123349 -13.990719578939494 -12.29690839553232
A -7.6866311399619409 -13.189397626801076 14.791582029291087
A -5.6494767320479911 -10.251440408314071 14.156778670020941
A -6.4541948046317454 -12.915178924843321 13.167697600590541
A -5.2098769349302554 -12.388969658652014 -10.602356186539479
A -2.3252268301775123 -11.768400347974733 -13.326678150136871
A -0.16724044413134564 -14.62559897564476 -9.287845169721173
A 1.2201800336014748 -12.46390637322844 -12.179139044918569
A -7.2640717475313714 -7.2547102770471996 14.863756082874223
A -3.0156639569026304 -10.370992257067963 15.052711386306624
A -0.37118420722182049 -11.881913837808332 -12.134223735024324
A -5.0078570946626382 -10.898137253190722 -13.313728291027905
A 1.5569783755107498 -9.7866075568398756 8.7486519651476797
A -1.1312913737632253 -9.7232448521697048 12.551203994249867
A -1.7425080648799665 -12.552928568514332 -6.4064238949179337
A 1.8542283432624482 -4.8056757516185087 -11.640204131678916
A 2.3176049826783247 -11.951643103665965 -13.604762484744709
A -7.8614961958916387 -13.037998009104079 12.550024593046006
A -1.297453631415201 -8.2915578688370459 -13.67171107270792
A -1.4692323920445098 -8.5040609519845809 14.289875248491974
A -0.67625972206995733 -5.2085710738226956 11.451296373181625
A -0.16456481748172352 -11.772467396016237 11.852362599374931
A 3.3434973463068656 -10.026454901906904 11.396439919309493
A -0.073882404965743914 -0.42434713107326866 -14.190633528191798
A 1.7465300435233788 -13.150408262169934 -10.438522956815165
A 3.6729126515233328 -4.6038689965874422 -14.447222581087141
A 5.8517208439305222 -8.2211962303984691 -11.939156964098386
A 0.54923509510213309 -7.5741790834954292 -5.8612699112362892
A 2.4666911479121296 -9.0205940967512941 13.526428985106099
A 0.21847722565388544 -4.630349740664057 11.389910477398503
A -1.0174153966661303 -10.024915708651955 -11.750939897617577
A 3.8724162779520128 -11.946146113245083 12.023261348550774
A 1.8187828098955399 -11.778678265264661 -12.716701910040737
A 4.7256289746019089 -6.6186449713385143 -11.60042819039138
A 11.532708628780169 -6.7172536177699449 13.141658506707016
A 6.80370811023871 -7.205516770703456 12.358276734136666
A 5.7265803220040175 -8.2949382153914542 -14.084559438852883
A 9.8365085973128128 -11.15238646604376 -13.372548959337543
A 10.620928152031077 -5.1865525786923534 -8.8708037899227339
A 9.1294453581909032 -10.524574234977438 -13.975441823307875
A 8.5372010879976745 -10.630886593173082 10.722941213195977
A 14.70036103258262 -8.4273023342819862 10.783346153916685
A 10.352244781316177 -8.5420078070558656 -13.548286407615912
A 12.07465312054596 -5.038886029871728 -8.9776478166532172
A 11.564708617107289 -11.863765422059334 -12.639037083766008
A -13.494952517249144 -8.8083143346653507 12.875675784267212
A 12.072244185544474 -9.3513199618649701 -14.486391340787012
A 12.437501763750522 -7.6180759118419754 14.349786461046195
A 14.201455525044546 -9.1355934159988887 -10.962393176583145
A -14.102278853452283 -1.7213818327136876 11.255920666789606
A 10.633254860237958 -13.205119870758105 11.72789020811207
A 12.359963227777502 -8.2731596361617221 -8.6686523070765027
A -13.643383520540981 -14.715531477295794 7.7169690274868028
A 12.966600044803243 -12.540959529464685 14.048633185812982
A -11.546599280830534 -3.4330512171246124 -12.142236598040942
A 9.2007965457230476 -7.9134250434771829 -12.656671921350956
A -8.8034475935115761 -5.9541126098480008 14.020435980358608
A -13.275898661017425 -1.5648264851296783 -11.623733869477761
A 14.472769334012778 -3.7373531431590923 -14.111829612204561
A 10.867496912738973 -9.1334009487514205 -11.55267276652217
A -12.960797681592046 -3.2781297680980024 -13.846144337891854
A -10.592753914131807 -8.7040414080747883 14.232955367887227
A -8.9798232738045272 -9.2118209337935681 11.444837600429329
A -9.0921409622738629 -2.5256085039711795 -14.422717984891081
A -14.586801711868004 -6.7184311380205415 -13.04877941073728
A -11.422736025010414 -8.9988052164033867 -13.464211414059898
A -8.3449824094090523 -5.3028247303024951 -12.111909137629992
A -10.230208390487064 -12.784501993103762 -13.277868207219695
A -11.97219082397177 -7.0488011066063505 -8.1521491540475921
A -8.6851720559443848 -11.170745454457613 -13.957550458938108
A -8.8012352652030366 -7.2267104582445763 -8.528390958203607
A -6.6383705951017893 -8.2427724625076948 -12.617304216688435
A -6.5781102716106199 -13.907457202639108 -13.893951756731747
A -9.5501625892232003 -11.224461630585587 -12.206642726711443
A -3.3446812941706794 -6.1102994200098193 14.270303282468406
A -5.0086942000150065 -11.99502990589786 -8.2949726644268313
A -5.7617022684578334 -6.1261543063975044 -10.060225030810573
A -5.8394365314311649 -7.6074831252952428 -12.726396287991351
A -7.409295451986365 -9.5071889943877803 -13.66337590933858
A -5.2090336679968976 -8.6911865872189509 14.920893042541328
A -7.6781386042087343 -7.445590471811709 13.435801322890194
A -2.7839304916116845 -10.598922332473476 -12.087784672021911
A -6.1218293486487427 -7.2322907794319802 -7.6634865827123013
A -5.4748713283818251 -12.919103160397539 -8.5415093078369839
A -5.5332900247256891 -9.6496483393908665 -10.563015929417974
A -3.4039381375745328 -8.7887657407875839 -13.799755652768896
A 0.17767232706258637 -10.147085529088143 -12.72747644684781
A 6.1608680373655362 -9.6882590678573361 -11.132976120001482
A 1.9248615557167899 -5.0947433256769799 -10.172769947281241
A -2.1648239444362694 -5.3226956926074083 13.181005714243174
A 1.7132700892152997 -8.5790297301706904 -10.977420537457542
A -4.3254523695539078 -7.2126388808732482 -13.774262350619033
A -0.69959161154423566 -8.2535510681837394 -14.912623994011248
A -0.071402339229389128 -8.5101306467271236 13.472914031322443
A 0.22586330692781534 -2.0170487621244835 14.791502512711062
A -0.78238866907980065 -7.3224463487471683 -10.85485445798385
A 1.6312679646907358 -0.73979172630218704 -14.534031140013617
A 8.0651992085024382 -8.468025442996943 -14.602419007572529
A -0.019954424518869418 -13.411561251357929 -14.299887876785627
A 3.3066564800040603 -8.9419875148492736 -13.178364879665818
A 1.1153291525250659 -4.7194319896102774 -14.662366190794126
A 0.68329493117050399 -10.894044049097459 11.643561424730148
A -1.8597430679023363 -4.5527207542215775 -14.45177283791875
A 2.4897233600204824 -7.4393691089134055 12.42642658307966
A 0.89523898140048519 -10.188108526280221 -11.812679238902927
A 4.0966220761650707 -11.569844486121642 -12.353878866373384
A 2.902804207980727 -5.4024353233557108 14.844763667281537
A 4.8889003986841306 -10.467686462118641 12.702333897455828
A 8.1522095903416982 -5.4634939222402412 -14.402308910558046
A 12.813971191595172 -9.9211145384287871 12.739493393167958
A 6.6229933222837749 -8.5567963323064404 12.103335003424556
A 7.2963969361598648 -7.1711514012090953 -13.044932186832185
A 6.3704604652551664 -7.2865432477064838 -12.371829276262924
A 14.057279180715859 -8.467085894824443 -12.211108144150883
A 12.261130629028109 -5.2873911555273967 11.508538140786758
A 8.7098564168318937 -4.6003772154919398 14.503294326256142
A 8.1672711236526379 -7.5657436038912511 14.877227458656016
A 8.5296129799675917 -12.870358908575664 11.609410240805708
A 10.878082109197729 -8.9948035919126461 14.649041529419497
A 6.9846743025993989 -6.4297002259834475 -14.879699148775574
A 7.0271164173908609 -6.2058743049824683 14.159153912228115
A 13.829668585693204 -7.2623175795529846 13.30794343715284
A 10.476855386508467 -4.6378550548210038 -14.395131129193979
A 13.107627857874524 1.9316791815834209 -14.463472860736053
A 14.322386180165154 -8.8071698264570486 -8.8937765294870399
A 12.02597816075737 -8.8621405727933471 14.260960831136352
A -11.069789588179336 -8.1818126380787461 -12.660684353423038
A 13.568610139013877 -1.9321674158284485 -9.929958015026596
A -10.265994708455365 -7.3863971734092795 -14.744857609061397
A 13.973307117737281 -4.4692703238218732 -11.580228306933016
A -12.109805522134742 -3.9822921934770732 14.672694784433066
A 13.396009405596773 -0.91967875004424593 -12.532253382238469
A 12.446071000036087 -1.467172736851462 -12.777034460567943
A -11.063873687024227 -6.9344003252317572 11.775401631306446
A 12.532197589162907 -6.8819805069610025 13.39537107947705
A -14.331207723543121 -5.9602973567823616 14.797908661346501
A -14.472532525425196 -8.3057016164610982 -13.957807071582721
A -9.4439429602547484 -2.6738077957333095 13.535069987345436
A -12.50062617959049 -5.5619148943538308 -13.577002544505612
A -12.688104931414051 -6.4318927658125773 -12.491556985221537
A -10.77908870723933 -7.4101992916723631 -13.711663492073669
A -7.0108551399588439 -9.1662388518285614 -14.639564009552108
A -6.7036488260886102 -7.6716145907735713 13.791951815112183
A -5.0594949742229032 0.55924664308906824 -13.654745775981626
A -7.7800251818488313 -6.5013318265574824 -9.9808484119145824
A -7.9566784113297047 -5.629555806446179 14.501647358782899
A -9.2621741412340945 -12.48051009013721 -12.684433159228012
A -6.772533164167017 -7.5063877154142009 8.8599558717820717
A -4.3926504994985089 -11.824600285005133 -9.9143613866282951
A -7.198254055751276 -4.8365319912649989 12.147245480182153
A -5.7165996573039974 -11.101299360308508 13.344610050137485
A -7.4839568835799835 -8.1412367078983738 -13.444390733389024
A -4.9917758409490487 -5.2472559735219342 -11.610874767060762
A -4.9133462363578868 -5.207473516626119 -7.3695968510495522
A -3.344906708428879 -0.12032545157948016 -13.693045753584567
A -4.9401363696312819 -9.7662703984640942 -13.189666483950836
A -9.9019795228138694 -4.6390172932186937 -13.361711334696379
A -5.926535817654873 -9.4571004771202141 -11.475339755564594
A -1.8039235083159413 -1.8181025498285326 14.944354721013514
A -1.3760495274938902 0.19064603401958899 14.297059494707067
A -4.8354416111836116 -6.2291016447630501 -8.131081917849075
A 1.4758894454404927 -7.3299147550060582 -10.86623163046759
A 0.21988308646392299 -0.085676801067396322 5.3745007607844935
A 0.89692971097039209 -5.7795365028688783 15.022163964057485
A 3.1582885470388926 -7.4420034102901971 -9.0590605421291297
A -2.9367877290628379 -4.0458123838894418 -11.026431151613618
A -0.94130793292459636 -6.2224307716681277 -11.199580834425799
A 5.055350502091887 -5.8101234958700321 13.681614579297296
A -1.2082977062065412 -11.743130843629213 -11.255192982171332
A 1.6822792787369538 -4.0025432745222984 -14.227315649280818
A 4.936410968288965 -13.051463080135727 -11.520373934446107
A 1.8696752938640375 -6.4495048590297408 -12.675923944626744
A 6.2128302652281384 -2.3204980629913483 -14.255439751088833
A 2.9449749382573418 -2.9648916152947984 -14.146979397518066
A 1.1816024518640356 -9.0014588971194325 15.046179894657062
A 4.3941726662492666 -4.7175730174986255 -11.822938067050105
A 4.8166618433122501 -8.4867519806350113 10.30004806636609
A 8.341070820156542 -6.3370055730618855 13.958670089433317
A 5.1057616375697146 -5.2602042561583682 14.759636714609501
A 4.4739417159721029 -3.1075361266964463 -13.376150974149635
A 9.9180739323365241 -9.6611789130402688 14.744244264825239
A 7.1441177191549672 -0.98980676976490067 8.8755311679460807
A 13.755572602556333 -5.3882009387394687 13.131247445232086
A 10.098357660172946 -4.4685794284169296 12.602179663742472
A 12.920217865310407 -5.1290610869796263 -11.156850836121123
A 5.1114951256726746 -6.5507262826268668 12.626638830144573
A 5.8133643317721004 -8.5153584534744535 10.179043654509529
A 6.3185140588344515 -7.3386472705768551 -14.778828981351174
A -14.958927637674158 -1.2653236516574706 -8.1727499763754903
A 10.862539149989651 -5.3938270627634797 14.062317037139508
A 8.2860381410588371 -0.98263750539892947 -14.527589710678226
A 13.896461719891303 -7.6997121674673004 -14.90702210798675
A -14.183944201168599 -5.3011625966798661 13.024740405061134
A 6.6255652707533539 -4.3805757596328228 -14.707900869071892
A -11.530430664282498 -5.0080418172576548 -14.186354760497771
A 7.7058199189155463 -3.94282271254378 14.37632434352205
A 6.1886545389791641 -8.4574294458353219 -15.019486706963328
A 12.408094059156117 -5.8325722430461902 12.751816023449376
A -14.603343481994136 -14.008943572557866 14.583894075166249
A -13.922775877546558 -6.3571655362533797 12.351770403519131
A 14.268322503917426 -3.6857890204624164 -10.487096800102748
A -14.214056799369006 -0.38167464674666229 9.477217885571287
A -13.443657664902426 -1.4779939965330906 -10.325734515316897
A -9.5481812418528733 -1.1422808672066658 -7.1711998094436034
A 14.371540406248474 -1.9270279121022926 -8.2484823671107499
A -11.753647490479192 -0.0091738027320153303 -15.011651466047677
A -13.899774679349189 -6.6345590100262637 -11.684014624511491
A -9.0408991481572443 -3.3482031415109086 -12.829948686650308
A -8.9569995375068086 -10.445321452297357 -13.125406545511986
A -14.854182566907426 2.7524405827813605 -13.417993686538034
A -9.3918064183527026 1.232082217994783 -12.843948622049421
A -9.8816345905525598 -7.9881750154046767 14.492749869534684
A -10.9723135547094 -2.3096012762391096 14.822951183612597
A -11.093918508501808 -6.108850399971911 14.345509686985855
A -11.287885193967529 -2.2242479856175081 -14.389466533647401
A -8.9581471921860256 -10.783523137273541 -9.2910599145993125
A -8.313912409541107 -10.701293402155716 12.216826437870438
A -7.1735968276903188 -3.9096735527877131 -14.746383916613656
A -8.5195858439666701 0.21024272301916058 10.293877343445814
A -5.478780175144796 -2.1076242771825493 13.760095409931617
A -9.0915336946072163 -4.5736473892075811 -9.4045286059000937
A -4.9790302555503008 -11.019515719562731 14.18422196243926
A -5.7462281657180245 -0.50669020623952432 -14.145849029258322
A -10.950099824008923 -3.2877742896406135 -14.691925656342423
A -9.7326964344133717 -3.4581956876261053 12.063424778704491
A -3.1139811183138653 -1.1736233310459814 14.727251937100219
A -8.339073621605845 -3.1148217082022382 13.878944361274016
A -3.1702328810545084 -5.6373158607084015 13.274599736951927
A -2.0716284985756901 -15.031318916850042 -14.205980688577142
A -6.6148989082024423 -3.0025661550038296 11.474251073684698
A -2.2945658043404982 3.0919087357172872 14.342843644087848
A -3.84952496952639 -2.5145355394223543 -13.363921469787616
A -8.5998772813685527 -6.9183841755700071 -12.353720091531391
A 0.55457873252991507 -5.622211008980571 13.930709984750255
A 1.2738173202239065 -7.9804131155367291 -11.775155997684337
A 2.5139956639272634 1.3456641627490065 -14.856824264668898
A -1.4992660794429986 -3.3521749094861262 -12.206613933588464
A -1.0145815149568449 -2.0665286074994951 -14.28231551368374
A -1.2137182036399112 -2.9281709519285308 -13.7055075734523
A 6.1661697515949188 -3.1846112567897058 -14.867178279771908
A 2.7223103189616285 -3.2444539107943338 -7.3974855463238773
A 1.628357533099567 -10.772290437995444 12.868114044681326
A 0.62706258597004172 -4.4526894601721994 12.878827766939276
A -1.4080149134379718 -1.9880374349958214 -12.043989396608255
A 1.5000176076689764 -2.6864004012953746 10.682429089190043
A 2.0015097635155854 -7.3735270062279605 -8.6705641708234857
A 4.39969013467854 -1.0670897566127384 -11.176623535300223
A 7.4719231444785077 -7.5411249096114759 14.095479084606147
A 2.359247207957992 -4.4845311222289714 12.933774203934115
A 2.0640588936885242 -5.265734562255151 12.383400112677503
A 5.8628048681186717 -5.0093533611231704 13.624553771978585
A 1.3271105133997354 -1.7855168581404581 11.085577448134316
A 6.2419699344419026 -6.0966138365596931 -11.838711438874322
A 3.6605550099577679 1.0785374314725826 14.343396663243762
A 13.06654908542998 -8.1798253878427172 14.928360793942455
A 6.4296128487068627 -3.5831486030251862 12.210548084151721
A 12.185498373853468 -4.961085233693308 -12.532658177786612
A 4.799368266823425 0.23146097449761369 13.234235925286601