ITEM: TIMESTEP
0
ITEM: NUMBER OF ATOMS
4000
ITEM: BOX BOUNDS pp pp pp
-8.549879733383484 8.549879733383484
-8.549879733383484 8.549879733383484
-8.549879733383484 8.549879733383484
ITEM: ATOMS type x y z
A -7.0645408688433848 8.046291492971104 -7.0817277613250926
A -6.4421288973843529 -6.3315939196819624 8.2252617588545185
A 7.4727301587471029 7.8964362637892513 8.4537379222062174
A -5.1967911920323164 7.8266056831294577 -7.8856935418834597
A -5.8089064689276455 8.3455088737529941 -6.3715029636614613
A -4.7498518774556189 -4.9494105764242891 -8.2775865563371216
A 6.7466629164882974 -7.6903003715879406 -1.8293630386368114
A -8.3553000652363192 -8.2810356029209249 -5.3220240191130079
A -6.7519283195586395 -7.9122350471627936 -6.2516647446668072
A -5.8728148841253303 -3.9314679596056923 -5.8799583856244508
A -5.5546917135364886 -5.5964281526713702 -4.8175517927204838
A -2.5032032939128288 7.5707402153541015 -8.2364582605506698
A -3.7645127445541093 -8.3539024408412512 -7.3392612894798832
A -3.3172847880368348 -6.3272752419169214 -6.9010016554619247
A -4.9627554260311548 -4.7430185226279988 -6.5147556765758425
A -1.7810225169002882 7.8229637256894229 -5.5356364650242149
A -2.1659274121938732 -6.7481235239382329 6.0340792841294117
A -1.8485451439106171 -5.2468667005245884 -8.1542277771390896
A -4.6114245860555387 -2.45931376010485 -5.9587887046458556
A -2.9887638566607428 -7.5725341128068475 -7.4813360085309073
A -1.4757126418515201 7.2361370995541527 -7.7909964627254791
A -0.045829917174069257 -8.2873998788213257 6.7788078468356456
A 1.4522392165090781 -6.355328362847418 -8.0574364547870747
A 0.26047554643662019 -4.1855807374490057 8.2436156338550983
A -0.1721450412309749 -7.9839671377785999 7.7936796441483303
A 1.1214070021542091 -5.9852635969571466 7.6546374890229458
A 0.58059296572451291 -7.5084442040753077 -8.3988670413414948
A 2.8826854478686519 -7.7507135830699392 -4.3043956050838759
A 1.4967370766654573 -6.8247509580081465 8.0592315612835588
A 4.6552921959421374 7.9124992782650736 -7.1458066610180708
A 3.2864147948133362 -7.9649427848940242 -6.7218918891862662
A 2.2390793523087469 7.1369712131504333 -7.6060656513241769
A 7.2625430034501433 -6.2751263425879786 -8.3746103126019129
A 5.7785323518602585 7.8880331274848974 -7.3261890263054799
A 4.1442831938075564 -8.2157806341821775 -7.5362915604988316
A 5.9390736480119104 -7.326479421872242 -8.3179951087510418
A 6.6621115185899695 -7.8529023177940713 -7.7960871937180398
A -8.4174968070831842 -8.1920046679264491 6.5303771486480819
A 8.5198248604179465 -6.8552117876973373 -6.8265536637213051
A -8.4174363677181461 -8.0709758371468165 7.6971157824417897
A -6.4276576315562801 -7.2522625851306337 -7.707549000802187
A -7.4898810009309962 -6.2520017339719951 -6.3243793884697146
A -7.3318166387183243 -7.3035273887446825 -4.2642284198960621
A -5.3521175318555931 -8.2309340310562273 8.5487299697413626
A -4.3416612524708258 7.3350832623975926 7.0294457890475837
A -4.1774033529780796 -3.3317699019607909 7.96608023673455
A -6.1608948421245069 -6.2291862454865878 -6.1278078458801559
A -5.6625038410105919 -3.1487329795912005 -7.2972763908398823
A -5.4938606577868399 -3.923802647070691 -7.9354334968081002
A -5.7663979321604764 -3.1564214499375676 -8.5300674087978088
A -5.3354162491734121 -3.1429285467674686 -4.8739117464967432
A -4.6119742838445603 -3.8962994846766357 -7.3035248023690862
A -1.5023867956511323 -2.4139098468496831 -7.4024516916240914
A -1.8120407650949368 -4.3826471751180431 -7.4750213319518455
A -4.0037473119501366 -4.5242447280115412 -6.8146811157254046
A -3.898649353425482 -7.1498095700044271 -7.5966733312477004
A -2.1610741926576416 -8.0758589325453265 -6.9210959291851282
A -2.4989350589679975 -5.5834937593870064 -7.4213623749663471
A -0.85651540274397009 -3.3007715049745956 -7.3287522320829703
A 0.48160855750223452 -6.2138137120085553 -7.518149635881259
A -1.223877627686943 -7.4522062777414337 7.8948736770379035
A -2.3377215984929758 -6.5302093524256772 -6.8300164494995732
A -0.44380861005503347 -6.7856077206670555 8.3346290549529432
A -1.4164180772497186 -7.0638240533599985 -7.2878570049747964
A 0.62041695239311057 -7.1454616551811307 7.6966710428455229
A 0.48790432535454131 -6.3952514253629156 8.4866957219534971
A 2.2497218799858145 -4.5395024182267845 -8.2233614397475243
A 3.7402432307170179 -8.1182401508973836 -8.5236538473320635
A 2.7586786793396056 -8.5390594724663735 -8.499233514207253
A 2.8937083312699947 -5.1316851110522768 7.0619611299056437
A 3.3926320133380203 8.1431644449201173 -6.5310935067890146
A 3.0121845342051183 -7.5768568217984225 7.9008473877645002
A 4.8846169456270081 -7.5433234726402869 -7.1072930235702332
A 7.6483119434829918 -7.9786043994418305 7.413091333268671
A 3.2977358171903446 -8.1883800671788336 -5.1220595127938138
A -8.4651050057103383 -4.7664488559097364 -6.5735422835906778
A 7.6432365504684157 -6.3104948730050721 -7.3956361785248612
A 8.4708756747152556 -2.4151874699162921 7.0966754357619095
A 7.5670947560579469 -5.4246390967543627 -6.2459042182809137
A -8.3835640360315331 -5.7474759582718065 -6.3495653218469634
A -7.4656337771301793 -5.8328105340978658 -5.4133976109892039
A 7.87972368741565 -2.5525211290687659 -6.1324952154585013
A 8.5343145919394363 -3.4387777574997842 -6.2280212398542538
A -7.0728803505086217 -2.9381899013005373 -5.9202377431732511
A -5.5455707114944603 -5.1492844191541449 -7.5583161366284806
A -5.3130264081132745 -2.3836678924941643 -6.7373392689389515
A -7.3991335954273048 -3.9478474577577898 -6.2553649928575332
A -6.484913046094368 -3.628514848566573 -7.6842169036891272
A -4.1880692523401253 -5.5244487633561157 -7.0840514376278323
A -4.3669117320992772 -2.450684804980455 -7.8583436068218218
A -1.2878847270188687 -1.545882283633379 -7.862841421784295
A -3.0849194225128409 -5.2633166439801125 -5.7990173482014216
A -3.699371443434404 -3.4447930961641497 -7.8002247062814405
A 0.46594907555325876 -3.5173449003794621 -8.0214577842444381
A -0.23630527392282702 -2.2782958157039759 6.2084237882842697
A -4.1815473786065267 -3.7528362271817803 -5.944854322896937
A -0.94773790772410293 -5.0040765798373759 -7.0906358595048893
A -0.77502259441046772 -0.72475436319077469 6.8570496827207101
A -1.3697171351151298 -3.2967548175165899 -5.6214048075935601
A 0.18424207149368568 -3.1677452279974601 7.9707529474888918
A -1.109125393898351 -5.6317920504189622 -5.8349924799394719
A 1.7228974267239368 -4.1882733885090921 -6.8056625396919079
A -2.2530814921227895 -4.3504519625052174 -4.3408482318129762
A -2.0805416188760453 -5.6221136360838848 -6.3889490261551707
A 1.089829752805858 8.2123054744889625 -5.595195813196626
A 3.810855872320519 -6.4304671173835342 -7.876268227093485
A 2.5243891622389949 -2.4811590887629831 -7.8138374279243186
A 3.1876895208352214 -4.7755875787533624 -5.5497274997409924
A 5.2572277533740683 -6.5118699203691284 8.3045409170868538
A 4.1876126709692105 -4.5064708209874382 -7.3993722613484882
A 3.6910290879114314 -3.2757308516154069 -7.4830446966787818
A 4.5116459424026241 -4.3017264872754186 -6.2972238775800458
A 5.1243576412496994 -5.6411160753906051 7.7473803880992858
A 4.5633457634938015 -4.5770996001524473 7.8539486568401866
A 6.9402702949383261 -6.6634902536794138 -5.8832572976429827
A 5.1376429201613938 -5.2666856912771296 -8.3634600438788702
A 7.0045625320820095 -2.5269995310066378 8.086688602317162
A -6.9567249958009647 -5.0425900215044299 -4.5488653722311048
A 6.6368973046282864 -4.4914519960564085 -5.6310567062185042
A 8.2159214784368153 -5.6723410309812667 -4.8763385401362402
A -8.4598854670907588 -3.0366665396561716 -8.3134529303586184
A -6.7156333591476765 -1.9173065913369107 -6.4073962168716685
A 7.8699634607184716 0.63008977414233225 -7.2516411099584985
A -8.3878287204940385 -4.7656352084152456 -5.5680288126252089
A -7.2780036958132008 -4.4948347665171431 -5.38489948501278
A -6.7139622343233887 -3.273840327398482 8.2643735557119715
A -8.012790541145602 -2.6081366016039631 -6.6952533580039084
A -7.2837044907400914 -1.8890724297948851 -7.26845103725854
A -5.4916692483209992 -5.7078776267452325 8.5410921651889176
A -5.3789236293885523 -0.35139551643786732 -7.619733563523412
A -4.7016519758936139 -1.1058262612614536 -7.9147723351330095
A -2.7346931928915801 -1.1702227161752921 -6.2397360603824987
A -2.9068195742480043 -2.124350989949487 -5.7507202858665174
A -0.81026173333677687 -3.0227510264317172 7.7976929530426329
A -2.312944211753746 -0.055119574322572674 -6.5095247459844394
A -0.51475759714273206 -1.247652000254996 -6.1612509095202164
A 1.092049983670085 -1.7202110846542744 6.4346542753363494
A 1.2497592764985588 -4.1839608413138176 -7.9785933424959641
A -2.8780937862131646 -0.71949178833846483 7.9613456740513104
A -0.28508667172618207 -2.8846110866120007 -5.2718554451545412
A 0.045257414498307114 -3.1763710236892924 6.6264626412149479
A -0.14208544183662966 -1.5052947954086 -8.031611987858879
A 1.5005367721982021 -3.1081207830596478 -8.3388146789544368
A 0.91327097621408981 -2.3551905915758562 8.1688836886937501
A 0.7031532286422163 -4.1265932380603907 -7.0905208250852683
A 4.5744546885661537 -4.3261953877304462 6.8349346121305867
A 0.44020108182749551 -2.8167665529795749 -6.1265521356365316
A 2.2247880102161717 -1.6215654960386074 -5.5374862127577744
A 4.2004858272775145 -2.8507844852345303 -6.2959699452461777
A 6.9100188815204184 -3.0565706711954692 5.2349161079173161
A 7.2839510456264005 -3.5675670527617025 7.8504161506334302
A 2.7771737222226309 -5.1128119361024416 -7.5532248896816423
A 4.233269158460029 -6.2705560867483028 7.4834264992215171
A 4.6481214427428217 -4.1256809257965932 -8.2971843509251464
A 7.3963951320701034 -2.9124460191928372 -7.9592356760421028
A 5.1593277052238102 -2.6917762000500702 -6.628286992726709
A 7.6989492061958584 -1.3730858749384272 -6.224283910364913
A -7.9752790296803067 -5.1197905466978959 -4.7120242173983868
A 8.27648976161829 -1.0433494808638915 -8.5017757652340205
A 7.3549267834181169 -1.8211183384019665 7.2133311065344756
A -5.8992302511422192 -0.087376570967686681 6.7173433151054276
A -6.3533695535513299 -0.026784529840448528 -7.8897266605549543
A -4.8890870230872876 0.6434506691013967 8.1899154588180139
A -7.041950804906552 0.48478235617900828 -3.6372977336472143
A -7.1230546629580074 -2.1528587689269063 7.9620067608578697
A -6.3124051999680244 -1.2839858495498762 -8.1126643840160124
A -7.6629869009806404 -1.518071514336258 -6.3625336267845993
A -6.3591697668197646 -0.0066925879890520294 -6.6875220389827126
A -4.1384793505842419 -2.9082882974942668 -6.9951999775117439
A -1.9811634162794358 1.3214542195153345 -7.4668288495534414
A -6.7350940917745481 -2.8341824956160586 -6.8616670659777839
A -4.7606859139718454 2.3934267349739349 -7.8893052722159318
A -3.3839973099107534 0.07863497665054868 8.3223708913649528
A -3.8171660124460223 2.0292578465970954 -8.0703213032646701
A -4.7245930950371857 -1.5831109134824048 -6.9191235247087466
A -3.7098192092857114 -4.409047878349539 -5.0281995188405677
A 1.3056642113395467 -2.2121636816051478 4.6158744438160397
A -3.7686325893255157 0.64357383785734812 -7.0049348184956246
A -0.00010296855327332228 -2.5722436624593739 -3.0461326122765611
A -0.42690773602339105 0.87431005100375281 -6.5725992445125652
A -0.23644308166081682 -2.132776265727053 8.0023696668867039
A 2.3994978679852292 -0.040702071578686549 8.4637703026057043
A -1.216657248938436 -2.7788309407678429 -4.6871304047617102
A -1.0650040654362434 0.0084264378113396397 -7.1158976652529891
A 0.80886964589152111 -2.4870472980060052 7.0118292411385532
A 3.1386782444580037 -1.6105697001679038 -6.4797688241382341
A -0.34694180380966821 0.50578681430797268 -5.6043363323689155
A 4.2045256701366718 -2.0396538411404022 -8.4046571300809205
A 3.1849891868673472 -1.7279484477593521 8.4053114380653682
A 3.4617951601419383 0.10401810634612343 -8.3878727071471406
A 5.3701501144857513 0.38170012837699685 -6.4597037152808321
A 3.3455587417945889 -1.7844565137824271 -4.1430336223185833
A 3.3364721786872118 -3.4240414814232167 6.4910120388012409
A 7.5766903177758422 -1.0592973055629371 -7.6428061810262236
A 4.22372180568959 -1.8214057113054567 -5.9722374891280641
A 6.4082877513926739 -2.9320759305302402 -8.2624721771329863
A 7.273943114628282 -2.0147876639979732 -6.8860417360501893
A -8.2860382259090262 1.0442222793069063 -7.5411315946995554
A 6.6249319996742395 -0.77307566664907645 6.4109560861051893
A -6.6518023436440714 -1.6182866089579282 -3.9583112672757097
A -7.7939206075563066 0.30638427819870734 8.1015990865855887
A -8.366026647280707 1.7908987104518843 -8.4251762584226988
A 6.8193717608375231 -0.46926728113982547 -5.8179605380305084
A 8.3058625300683868 -0.7158904048298399 -6.6828095926055218
A -5.4269787658276867 0.88080067435038134 6.9376826568381151
A -6.0548801460969335 2.2758776237606972 -8.5368681351609119
A -7.0193416572219469 0.9298833174769916 -6.2305065617098281
A -4.8211845110834535 3.0135528838798682 -5.4134570591873707
A -1.8071567928111778 -0.75878621025956861 -7.1452412797095555
A -4.1512426027621387 2.5313163708662567 -6.5462144378068281
A -5.8989455896611673 2.7344213063598639 -5.5089923528697886
A -2.4745375717471521 3.6349421832510469 7.9712309982528353
A -1.7926364184897001 -0.31528986890993954 7.4796032886177297
A -1.0348022980970919 2.8651596553788137 -6.5544320527430227
A -3.1962494555219174 1.814252049128033 7.7657426975533461
A -2.4018304461540079 1.623208524798234 -6.1523643348887651
A -2.396192286215248 -0.5991986494446645 -8.2581981254953369
A 0.95267179022056503 1.243361092999212 8.2502702244313078
A -0.94841139681170972 1.8955885831126342 -6.1861227778526215
A -0.047250139118888167 -0.55048381684771197 -5.5257490995572551
A 0.067740227866757305 0.64991747292581736 8.3188066846543993
A 0.30416788342271972 2.1355076701427071 -7.5667008302284167
A 0.97522090307991194 1.431146402494921 -6.880579216627396
A 1.3992382813544011 -0.59052305683678352 -6.4603808970862167
A 2.0496591554864234 2.0276481484157731 -7.4585597413142217
A 4.673527276592397 -0.61185912415551225 7.8106935938286615
A 0.95257181506420918 -0.20560242157355582 7.8737922418522324
A 1.7935754977993812 0.68103013949703717 -7.7663878791030196
A 2.6202157149029008 -0.4602202806610507 -6.4184078915572895
A 3.0745822591047234 1.3229987708995194 -7.6133285551377812
A 4.9582375849747216 -0.13093418829442385 -7.2754076873149707
A 3.9125060451948031 -0.91806620042297005 -6.427826092081447
A 7.0982460750688841 0.3996132587853129 -7.9611043477244205
A 7.6426719557547163 1.2142966330721576 -8.179435415466191
A 5.3064635117833134 1.4882460333365732 -6.1925682542602294
A 6.8025794498930985 -0.075521382594449377 -3.6866766133224624
A 6.8145384452961455 3.494154656162793 7.6061088209866394
A 6.3537844508282237 1.5170929000917122 -5.9490075034838421
A 6.0585132145656475 -1.2676194696067138 -5.7727283167550718
A -6.8124154470145903 0.57946296055756075 8.5455077987605659
A -7.088176445955396 2.2665689370646205 -8.5087205810502073
A -5.2742080505948623 2.472699449156615 7.8126733281278593
A -7.8058969656687731 2.7989041168468431 -6.4966120005610071
A -8.2037933584001195 1.0253608341380385 -6.0911069762897245
A -6.7663387372685815 1.973984014413926 -6.8096683554576281
A -5.6581163511931623 3.1485359628610392 6.649752772165483
A -5.5049344362744277 3.4632100005515256 7.7121040645783143
A -6.49975881011955 3.1999092856961209 -6.7162936618468514
A -3.9354666815591455 1.0732804577670625 7.9139499103051101
A -2.3692919183401133 3.5257999319383182 6.7478513320852667
A -3.2198770875430416 2.2418647575580093 -4.5863804655408211
A -4.5959001481350699 4.5828922646755634 6.4104535668222731
A -0.73227106269637332 3.9979519962491108 6.7680567557446647
A -1.1891639628619746 3.0061192633326597 -4.5702726297503711
A -3.497626303896205 1.1637158513148129 -4.3427240748031242
A -2.0625628703610057 0.30279080707513029 8.2951231537338685
A -2.2673744739976844 0.39166339024601837 -7.8160414899560644
A -1.3199358622070938 4.1538368733125441 -8.4581959112564569
A -0.028116717759110996 2.4969397713715979 -6.345446211074993
A -0.41545145234347819 4.494421490756201 -5.7282998379520178
A 1.1865495091456617 1.9896192037386662 -8.1100301258373122
A 2.2248263142282623 4.4136821202655945 -8.3796895617023992
A 1.1989980158151141 3.0780006924003231 -7.152284716225525
A -0.2613114210555067 4.286758924267609 -8.3554450979909944
A 2.2483881958306844 2.6549411359438038 5.92070920259175
A 3.0434373234033951 3.5141291459540742 7.7683505566716988
A 3.2923091179800847 1.3934332882136826 7.099662621474728
A 1.8405626325214421 -0.04994288697284345 7.2973917541038862
A 2.3371045115616766 2.6162658223498716 -8.3086316129429729
A 6.5074053737896547 -0.79134819032822534 -8.060388457276936
A 5.3833821584508819 1.7207193149667914 -5.1108281659618564
A 2.5096024922211937 0.68197339304685589 -7.0577260488878402
A 4.6236278341889614 0.87833560437421776 -5.596542184395739
A 7.54983521785487 4.0721911299596165 -8.3801212080485303
A 5.6473131498833782 4.3898207503672015 -5.2094159386826986
A 5.2925392938187796 2.6875357779649005 -4.6635153047714235
A 7.2943661454161237 3.5203362482703771 -7.525002715778248
A 5.4590295889630225 2.741925237715094 5.6239368768583624
A 3.0624191752159371 3.8533926244180714 -8.3735765833107596
A 5.9838724657006024 -1.3708604530267252 -7.4246843574199266
A 7.3451889927941121 6.1556881375066856 -7.702291877673888
A -4.8197472452657655 4.9517275513927901 -6.2556298472106056
A 6.6111265361664042 5.748491191624562 8.506750767022865
A -7.5189414721992121 1.2869969995400228 -8.183589712434669
A -6.0610154570361745 3.5934586883154922 -7.6503061983287708
A -4.4296075138960029 5.5533392597391877 -8.1532637652215545
A -5.5094651328609991 4.1429473157283709 6.9355116458351258
A -4.9210300900696486 5.4854321591523512 -5.3209686376030012
A -3.6026026570716696 5.9418326661273699 8.3518096591859905
A -2.2825489586698673 4.9049779347100255 7.9853515059003524
A -3.1897033633639316 5.2862069731763031 7.5111859364631535
A -4.2444339728675438 2.6925526988142887 7.9876433238728808
A -2.3703734816183681 1.8497483189399531 6.9181344571637755
A -0.4215435830450413 3.4328060676645507 8.178299311845219
A -3.1626584838682859 4.824499462449972 -8.3953740286614114
A -3.0022751635400331 2.6893421194085492 8.2500263505971567
A -1.5057855943156544 0.76887368908732412 7.5346529297598472
A -1.9828754908098767 6.8080886315742326 8.3463963139662951
A -1.0182993331758092 6.5566043443246738 -4.5770324965880214
A 0.51509286262618115 3.8310463528289334 -7.8480883470406324
A -0.81884123635010464 4.7163320726026869 7.6799606861807135
A -1.4830895983391688 6.0365080607708839 -7.6058297021362149
A 0.88867555802333698 6.6260187513516211 7.5148376400681833
A 0.98896449110370943 2.3254175423620334 -6.2948494586495496
A 2.2705080600318008 3.4434308715856803 -7.6538036806553045
A 4.5685016426258898 3.3600766107504176 7.3059777509311843
A 2.792825909212405 3.2185961270147661 -6.6214151351864947
A 1.0118355503673353 0.77914281684669751 7.2119399621924707
A 3.3972244598868166 2.1566052775334414 -8.3600920355305242
A 3.7672200488368204 4.1527142358789355 7.2901517522556532
A 2.3370373147070462 3.3545826841039497 -5.5963357509707858
A 3.0593423024144339 4.2512586881179413 -6.7418307486513012
A 3.3874890221985257 1.5617566456488945 5.0825824141859144
A 3.476080543883139 5.2108906927961653 -6.809018204571835
A 6.0880810370109399 3.9335521097809081 8.2198398569149553
A 6.1567228827112714 0.80632720735616048 -8.0950645645786992
A 4.7002640149754038 5.0213996969560197 -8.4171752804688857
A -5.7752392562696517 4.1477221141301985 -8.4511185777645572
A 4.227357328159747 4.9437461054461975 7.6958913408495988
A -8.0707167875049262 2.7428908378342745 -8.5112993717518908
A -8.2586069871059511 7.2905363729540706 6.8772564679405654
A -6.1793239917341776 5.864055905301707 7.7814776901008056
A -7.6235456369519925 5.8904998378344207 7.7579631899033554
A -5.9988798827860732 6.3606714751029525 -8.1601164792710836
A -5.4532713658363416 5.0490733970078248 -7.7058565891896249
A -5.3487808249753312 7.5860488227518008 7.0238399353359267
A -5.3707102638528026 5.4433380324440943 8.2838294609222949
A -2.5890660882919287 5.9712648182594892 7.9807916192135977
A -3.9560957298367372 4.541854570026076 8.1451568258723057
A -4.3635031622818259 6.5932104545178616 7.965187465076502
A -4.1552944193103771 6.3372383071200193 -6.8273605485833926
A -6.2037889789040257 7.4162145772829522 -8.1734451881402919
A -2.5869275826949663 4.5789573216066213 6.883779706394364
A -2.8422013872546583 4.9121342224936972 -6.0507580083473904
A -3.3071971604188311 4.0599476285833305 -5.0996976697927119
A -4.0108848189508626 4.662040333584045 -7.3285068116708052
A -1.6887446307090592 8.2925028832521246 -7.629317352477579
A 0.63086466214813797 8.3036970880282102 7.3864014801482476
A -3.4730411032674229 5.1441844525114382 -4.8666782603713132
A 0.25733749590649069 8.1538299941196559 -8.5262360735246201
A -0.7428843520499453 7.9663479017515089 -7.8924991478735933
A 1.2930610535808966 6.9375996291866171 -8.2192412349971278
A 0.11773598557792722 8.460052476131505 -7.5768660517906303
A 0.32873650392175996 5.0567017044397105 8.4815815616812475
A 1.3633546634812155 7.5213280418149981 3.8197614360009506
A 0.47217225195693918 6.4208763747665776 -7.7218782549779679
A 1.9092732536852808 6.4903853922810422 -6.3361192552707379
A 1.356492775600477 7.1287780589019132 -6.9413162774392703
A 6.8922752331956829 6.5946775763439014 -4.8349635005103808
A 6.264749435462118 6.1582444519779225 7.4885714416374256
A 4.536245561230432 4.1015047942311016 -6.6001756382485528
A 3.8748705825576213 5.6555569205669176 -4.7487835157287055
A 4.7817718245710186 4.404101720165138 7.0159109424714181
A 5.6660262075312771 5.7283263018042625 -7.0820932725991046
A 7.5042529354906717 -7.3690619571378875 -8.1262032452030439
A 6.3211062779585401 7.7721490167236116 -6.4678259881802775
A 5.3054867180677343 5.2861902681370818 7.9101691004405534
A 6.4747444514923513 -5.6692590094102737 8.4607187075171844
A 6.569869706616382 7.296107781937498 -8.0994257872630229
A 7.860824285727487 5.4654221573375796 -7.1234044164467933
A 7.1456237925151811 8.2439773913474639 7.5090708235119763
A -7.5049661680358488 6.899751287199865 7.9360452132992183
A 7.7679682487428625 7.2650433590356753 7.5784956823712655
A -4.7634307647299305 7.927372228080646 -6.5272829801651007
A 7.9501284545330471 8.2488756465147723 -5.6747902941605295
A -6.6571781514833637 6.8067551865246152 -7.4124809835344072
A 8.48344748428228 -6.8541368854088578 8.5258904502688182
A -4.3989021524152623 7.1033213287991019 -6.0488844700024789
A -4.0226021538569814 6.1352534906174112 6.3392528629368901
A -3.6601639080274913 -7.0080215538775246 -5.7768288023841237
A -7.6169431797152756 -7.3480000871826689 -7.4175393599448958
A -3.8370561602098965 6.5147166201397475 5.3296924555795293
A -3.4156029486728232 7.5469691273617734 -6.7233275883977059
A -4.3868442923538744 -8.0659644671244557 -6.0933664563619292
A -3.4229862454754536 6.9597418828666235 -5.6471134855346454
A -2.1198723563239072 7.3441235816245669 -4.6534733452311938
A -2.6738106561201485 -7.8035140373009337 6.5928756928904253
A -0.87158641811590876 6.7258637393218441 8.3470154636742944
A -3.3796245164536307 -7.904369748068655 -8.3414106980612424
A -1.2544353265747032 6.922613288661875 -5.6039755877833404
A -0.50032305369336516 6.7753527642177938 -7.3420083891328707
A 0.5573255563485916 -7.3154425033554737 -7.3965016805028085
A -0.28941699881281208 7.8449417330384925 6.4145397519809393
A -0.84443582414536811 -8.3118211400932633 8.4764557791961845
A 1.0331250198944706 4.134615475453697 8.3478721084735081
A 3.8605703670614409 6.9534705253264306 -5.9727357996648145
A 2.6528180225455005 -7.4988095194308144 -6.0413514364946641
A 2.2184108300919259 7.9128022582722943 -6.7535599287234982
A 5.9791890641487786 6.6424665464340391 8.4344189084023409
A 3.5755762097314383 -6.9351739188302535 -6.1880942764737812
A 5.4560691296243515 6.9770582963270966 -7.7896718989968088
A 6.6772006583926302 4.8847458001746968 -5.1114505096927232
A 5.7635721360959415 7.6624501648826655 8.5107687699859067
A 6.8928176076014145 8.1545499393242515 -7.3021022787140746
A 4.1923126166060944 7.9038574694273231 -4.8711638987491268
A 5.3762018162635741 7.0882796133655974 -6.0338406196666048
A 4.6676025957617782 -7.636766571226806 -8.4817402786189966
A -7.6169830123976627 6.7198451886696899 -6.7305435397265772
A 4.3434552487430205 -7.2353474952784751 -5.1265590987188547
A 5.1545585802928748 5.3334235198809941 6.9003575168824671
A -8.5444839385628644 7.8505837234986195 7.9146802811700763
A -6.7287598974725249 -6.9198387912901946 -6.6094976617632408
A -7.7250037111332812 -7.2693938975032593 -6.3469388632217774
A 8.4797422573826218 8.3314404935759558 -7.9858870781729472
A 7.9601772079455078 7.5769250333582505 -7.2379137946289607
A -3.7834213655227087 -5.2973346931560128 -4.2108652758255865
A -7.8602207298110391 -2.3122778571020137 -5.6107377250673682
A -6.0617868861297479 7.8041754693132983 -7.2425674396878525
A -3.2864504845752869 -8.2360945141062594 -4.0623736556333281
A -2.7724578504016852 8.0289368646398369 -6.059623650282683
A 5.3087409866267077 -6.8081113349711408 -5.1367070266113029
A -5.6780608488487943 -8.5115627283197934 -4.5991130150321702
A -5.2311089230889571 -6.7042375726773775 -2.7904442903933133
A -1.4259907622134751 -7.0248190967910746 -4.9237678639969138
A -4.8617784521357157 -6.6998422608108559 -3.9350011435698313
A -2.4787688225530382 8.4627950507824412 -2.9685236545452991
A -2.0837670516936231 -6.5831664013308728 8.4721242691045742
A -2.8573698110368615 -6.5734379471772542 -7.7747743363455371
A -3.2170267728203408 -8.1715715957088157 -6.313684882803499
A 4.7074114988075548 -4.9925691674149419 -5.5698805407295513
A -2.2921495885428467 7.3721613528330501 -6.6820461343746285
A 0.42510099379032484 -7.1421148710540177 -5.6660776811746345
A -0.92647001141436447 -6.4399825294137791 -6.517995735943396
A 1.756218633737396 -5.417971431413144 -7.587788440521595
A 2.4811046969489396 -6.0407756637847738 -7.9247398626338041
A 2.0568026183192551 -6.2730141426776607 -6.8788298131437982
A 1.3905768258890105 -6.9017615513177075 -5.4145670591768855
A 0.9457273988453081 -8.0225688222125946 -6.7275761083294618
A 2.3049579531316433 -7.0978509788701993 -4.9732988182775069
A 5.9419332380509857 7.0271771325562948 -2.9305301159765582
A 3.488018163832562 8.1389400507092589 -4.0945129711543711
A 3.0418992259985886 7.5337903103561796 -5.1951686849389578
A 3.1931538637650356 -7.6517765568113463 -7.7153030285171598
A 4.3005636602605763 -5.5194261403576439 -7.6480181418291728
A 5.0384901027282192 7.570407197559172 -3.2657714747991013
A 3.1594413231537404 -6.4171623211760913 -5.1804213779969066
A 6.8780254844614364 -4.5198300501413451 -7.4125158626506948
A 7.3919136361518731 -7.5843696586113545 -5.9257116167116113
A 7.6060965747543881 -4.9519207677320889 -5.2216028497790408
A -7.9423470317962863 -8.2297511190161092 -7.0146673373452719
A 5.6105194794261859 -5.9411674998602866 -7.001390286817144
A 7.9942382013506563 -2.0314070244842681 -5.2606051659320663
A -8.401373341362163 -7.4037347816524557 -4.8426622557495085
A -5.9264796329267018 -7.511938478513148 -5.5697551192889314
A -6.7695151848561093 -6.8742112448218142 -5.4937286967700993
A -5.7534721045855157 -6.2448018197819772 -3.881372941733936
A -6.5637063929594683 -4.5544682915394414 -6.2732131089514702
A -6.46559755723879 -5.3505310604593301 -5.6112148976231513
A -6.2158672140671314 -5.3857648338228881 -6.7711247863379969
A -4.6658667570313455 -3.4214281971850005 -8.2470125752175552
A -5.9024445301727448 -4.0600649619295091 -6.8988270879029638
A -5.1324511381487383 -5.7316546819642964 -5.7932245683453365
A -4.6366915858235203 -4.9414869712646619 -4.5933675386922816
A -2.3462554813941696 -7.3099940419632414 -6.1710093208591488
A -3.0043459886861119 -4.9850042680924842 -6.7723305425318401
A -4.1865173636664421 -5.109329753739245 -5.8719882137091188
A -2.8204339074546407 -6.3487615482476292 -5.9105747788541105
A 1.2573391525168813 -6.1553232532093185 -6.2584610611831843
A -2.0469182791430574 -5.3443221891360135 -5.2363673267015027
A -0.39958806586597218 -6.5297556676772048 -5.5859841811060669
A -1.0519953050175741 -6.0161602741358777 -8.4647263037483782
A 1.722586113364486 -7.899211991689727 -4.2308414018532829
A 0.77655022792206951 -4.815993486077538 -5.7162914104902276
A 2.8795187964298719 -6.7158413673906034 -3.7950939231318572
A -1.8006393983929547 7.7625394250661266 7.3802945819569086
A 2.3339316139640403 -3.5137121095620838 -6.2944631808177087
A 3.3711127797571372 -3.4040877477199341 -4.9050446190452526
A 0.096078610831311181 -6.2069087551674116 -6.5000409165133552
A 4.7463755735442241 6.5677673892350317 -6.8418522006204672
A 4.3707640102474077 -5.8994705893330899 8.4608229155652364
A 4.418612122346679 -6.2856666865747748 -6.7022321659798552
A 4.5630030117074796 -6.2110861850452128 -5.6153985275167075
A 7.8934739160477365 -6.4573878708008055 -6.1447370806750961
A 7.2067556749907213 -5.6163195596136468 4.912556776775066
A 4.7270985050346539 8.4067147422811388 -3.7792127022865869
A 6.7069614349096929 -6.8111395847645104 -7.6670226218912108
A 7.5706806300567928 -3.9821524559524986 -8.193299357794654
A 5.7163579133981219 -6.09021327671572 -8.0121332849572351
A 5.5943351085646844 -6.2662186587396134 -4.3044854113402211
A -7.1040565697346203 -6.3043692929425506 -7.3082246073247186
A 8.2913831841685184 -2.8558118120919072 -7.2527454935208349
A -8.1366492317523083 0.0021773479615149341 -5.6732825392521571
A -8.5329384830478574 -1.2918723711233475 -4.2313252472255556
A 7.7384340029014851 -2.9367661646964831 -4.3451971279292403
A -7.9706945383764829 -3.6924284379487018 -5.2724249949213124
A -7.5386668403099382 -5.1629132373911908 -6.7307737084236114
A -5.6590890373826204 -1.7398360512834694 -6.0125417768731841
A -4.7298609029671645 -2.1316828690189094 -3.0755267382134375
A -3.7116621279900617 -4.9010405839021169 -7.7480297823415354
A -5.7255427771941445 -2.761485877395744 -5.734253368946578