ITEM: TIMESTEP
1
ITEM: NUMBER OF ATOMS
23328
ITEM: BOX BOUNDS pp pp pp
-15.08190489966774 15.08190489966774
-15.08190489966774 15.08190489966774
-15.08190489966774 15.08190489966774
ITEM: ATOMS type x y z
A 12.825693088214733 13.788771641011593 -11.840102961539785
A -8.2128867230408744 -14.769497990008674 11.250194126280183
A 10.435326637167236 -13.046100990904479 14.331361322174168
A -13.827281810949705 10.569063756138144 10.025854491436579
A 14.812061495567805 -10.76184759928258 13.271968722518636
A 14.017824510101054 -12.041918432128011 -13.138870378765267
A -13.808751867318691 14.509926480823411 14.748498393024333
A -14.386131339156778 13.750887193094785 12.921062483992399
A -12.415116223874321 -12.408368607387471 -9.8838453133395312
A -12.874692760977416 -10.828956601523453 14.985941670575258
A -14.089299113634862 -12.839829925340142 -14.823226541299883
A -8.2261163246931357 13.629887514002123 13.23825135584616
A -7.1012078520520978 -12.369394397508021 13.753447098496109
A -9.2905923152086398 13.683537535604646 -7.7681101241837611
A -11.912116608448859 -11.277432929643576 -11.587953356829322
A -7.1739595071695073 -12.872806712961987 -11.033800428102385
A -8.7983183319896003 -14.941317660067773 9.3736307381438166
A -10.414847736005232 -11.659012106403482 -11.952309850396455
A -11.976607499737664 -15.019468404302255 -9.5931404188888241
A 15.081628613702836 -14.738115459495083 -12.174432362615576
A -6.0914835168924908 13.977720048892952 12.768410184625676
A -13.383081721518566 -9.1712601583489217 11.642768797733686
A -11.044293036574816 -11.418173946935479 -13.380713322696286
A -3.961913811578055 -13.930090518100194 14.333979797707002
A -6.5666327852901452 -14.853995376489625 -14.911417033362527
A -2.6963057832333401 -10.651347783264459 -7.9364556722024489
A 1.9719369177052744 -14.927107746722253 14.507816546839512
A -6.3656643064714169 14.820556074112265 -14.031553570780641
A 0.5990509280469547 14.284973873070664 13.423929736915314
A -0.46729084447203018 -9.1115491197231453 14.016692603913381
A -2.6402009611477015 12.619606239519836 -14.228477928587099
A -0.18980019320715566 8.6104627912318286 -11.16002797013777
A 0.80013794587537157 10.357251125272187 10.504453739182928
A -0.71870524038856465 -14.964527550927754 13.3980289184043
A -1.9827378236487538 9.2340089860608234 -12.869152775314124
A 0.20829581849962481 -14.777705484257417 -14.591710722224322
A 3.3025510212404807 -9.654024675172133 10.05649690594093
A 1.3373159612908168 13.047975545587402 13.749541700313587
A -3.2443340042429143 -12.708030446485264 -14.028800502392395
A 3.5576883546919915 11.124025499850296 -12.946592313976197
A 2.4211470588130481 13.338224116592041 -11.029000716556512
A 1.4895788450595451 14.460476083087149 -12.162521874894116
A 7.945077728155705 -14.144005018366471 -6.6967888029068794
A -0.28800585799961476 13.031727406561892 -11.393248917552221
A 7.5244478238905659 9.4634391346786995 -14.857663687235586
A 7.0990100566182317 -12.355250461120464 11.756531955470896
A -2.8245334351372051 -10.460450646379396 -11.158453056603076
A 2.3638542232903283 13.74364557973546 -14.116646251899102
A 6.5484877202675289 10.861308622082701 -14.826423246779949
A 6.6332036389688485 -14.904153943868925 -10.945874095227476
A 6.8977686075080893 -10.59051404805483 13.845361269268704
A 9.3822487913933443 -14.740134707941456 -13.530415241962494
A 3.7281867860796583 -12.605186679100393 -13.196133045339476
A 9.1310270314616275 -11.982499981446479 -13.400179785100558
A 6.7863840852090913 -12.69996890079589 -13.115110783624598
A 10.431481887228561 -10.78602087406672 11.113375652737524
A 13.410802871093102 14.218901167352845 11.59762117155522
A 5.8365541803237573 -14.8902025558912 -12.689686126345583
A 6.71225247306693 12.490889981293847 -13.84969903428555
A 7.5419551688603912 -14.251318256479692 -12.629308022498497
A 14.749455872759308 -7.1423749737366666 12.212014708049004
A 14.78424332706261 -12.927693064001582 12.054140497442196
A 9.8121689341099394 15.007071234738454 -14.86470421312313
A 7.0618753139133412 -10.621356422232441 -12.401375903032907
A 13.497684010982102 -12.270803750777532 -11.602823440079561
A 13.160031847085476 13.395826390649747 14.38114538283442
A 14.501795548953254 -7.5009423315057768 13.264061485568124
A 7.9068679059754858 -14.05049244560511 -8.4033993178526245
A -14.415915718234706 11.974907368268982 11.437910825374829
A 11.091370049399657 12.459914334431518 -12.619444265911985
A 14.463670330195349 -9.5340829371770042 11.762187491236231
A 9.1979161351913152 -11.996495481580295 -14.412645907437598
A 14.730318343483791 -13.472761144668725 -13.813876598641267
A -12.246700525863483 -11.33195340244103 13.157622054160433
A -14.186478778008585 -10.010337288452993 -13.865327477847959
A 12.61595747759038 -13.918705690399541 -13.98765751942582
A 14.097441956022518 -6.2162171007074933 -11.571198755813613
A 9.8857407114027964 14.062133349886434 -14.517186807243018
A -10.549008888058717 -13.23426627544551 -12.656089140688586
A 14.218375350875606 14.97288670041738 -13.269973817125367
A -6.7206047006777103 10.435626375651307 14.359876145436917
A -5.7800138201422229 -8.6391819065236497 -12.59518544137044
A -14.966714426699506 -11.176967166644681 -10.569203576660419
A -9.952000505772844 -13.85455660355165 10.740231437695947
A -8.6409095491430463 -13.768145562658262 -13.671006905640231
A -10.687025029913441 -10.485318285666485 -14.630976276833035
A -7.7547557021421962 -8.5438614334646026 -12.658135085716705
A -5.7906497992107351 -12.842115377543053 14.501782619782269
A -6.8975712239901075 -10.299299452358099 -12.411086032827331
A -9.5368248535667526 -11.341986664831639 -10.182734114461592
A -3.7354220969942658 -11.0754962462674 -7.8717758362336845
A -8.7371116186500295 13.707027198648914 -6.0591925664057946
A -7.9380198443538603 -11.836219831391432 13.614556800312561
A -8.832667223772205 11.504606927920218 12.277885996534597
A -12.487528689046416 -15.052970953772663 -13.548458170451939
A -3.5105126034052443 -12.972857898132187 -12.188539335177525
A -4.2835086897084453 -14.987972476230246 8.765543326826748
A -8.4713302953208078 -15.080796504410587 -11.209350500153523
A -2.961648518683961 -12.252988252848903 -10.571850946917063
A -6.4444761725321174 14.761737941756717 12.252703257092605
A -5.7964970409946961 -11.873802030673767 14.884071642731413
A -2.3545538271454562 -12.634320801047014 -14.892183666216933
A -1.7898751996100437 -12.385841193626408 -14.075524263060128
A -3.4757057232069859 12.385628124451635 -11.15211270030912
A -2.6463856589498915 -11.903820463997196 -14.269037385237516
A 1.5303120658818468 -8.4146499397748933 -8.5240616766562773
A 1.0983452240191423 -11.942525448653967 -14.123203249893097
A -1.5542744296731545 -6.3980626175194377 -13.23637783915405
A -7.5607126764660739 -12.323430029264227 10.038105860930077
A -3.192739507023219 -13.597420909174792 11.453153428233971
A -0.18116167835831989 -14.665769993358648 -13.028841274616886
A 1.6130042609092743 11.209141155502719 -9.8805004734646733
A -1.1422003199789752 11.931319684198883 9.8026524404663533
A 2.8983069332985214 14.710200073947279 -13.113494256290211
A 4.6826118004690933 15.02728425444764 10.500870343733723
A 6.6891249279897513 14.55647801097685 -10.126562036140434
A 3.6651585378892642 -12.518925313610593 -14.359387193110742
A 1.9908719960396248 -10.65440352949879 -11.882323388242142
A 1.5391798378852666 -10.866188346526604 13.669836717388812
A 3.4367774556128392 -9.1078103950025575 14.66773501259086
A 11.516558710777142 -9.6074343356924796 9.4157733573228786
A 0.45001671106165336 -6.9705253139245471 -6.8524225826146123
A -0.45113792983667117 -8.9756183382113086 -13.642016471874566
A 6.0925028902204144 -14.566651581039908 12.319882697946934
A 8.9576019911740854 13.837359785424779 -8.637311045826733
A 10.696241279002097 -14.485435200392663 -14.389248956240047
A 6.9287483090720476 -14.015493363336955 -13.831444425056585
A 10.068201701219158 -7.6093007611388055 -10.798489567089799
A 8.4161377430914346 -10.654492675998496 -10.094494037303555
A -14.652503477500863 -6.5001379179426628 -11.48848589471752
A 5.0400902387429403 -14.586346295115314 14.076701185851052
A 8.7218054317665619 -14.190221362763035 14.240163261568913
A 14.695498405160793 14.331608479216175 12.969077700546446
A 13.067259268201058 -9.0714620264470227 -11.600156342713733
A 13.040666009827799 -13.893027628961788 10.724063651013365
A 5.9420407710550576 -10.757678546612539 -15.058697425511648
A 11.795597352198644 -13.365017731734001 12.939961204029684
A 13.662200314653488 -14.368204864338047 14.521255994193847
A 13.246749942953125 -9.393051028094801 -12.951759779094392
A 12.804091388697104 -8.088250857053481 -11.730827085908691
A 13.960288494259595 -15.036793451474622 12.329368343732561
A -14.065100086204284 -12.951825256036773 -10.824548652609622
A 12.268553723700819 -14.036564155842083 -12.012409705774981
A -6.8136237192148643 -11.993580214702419 -10.529333100635045
A 11.657121899336987 -14.884770472339788 12.453624999364612
A -11.844596286871031 -12.083620434706308 -13.446627800490958
A 10.900728463361869 -7.0800250558515119 -10.581726152775385
A -10.508992047141131 -11.922016237933525 14.369159599775886
A -14.67740939735039 -12.151712318336223 -11.115794034257254
A -10.543824629403348 -9.2589228307105369 -11.340747901393915
A 13.742376493973318 -8.9123629859073095 -14.307128394680957
A -6.0970015453328621 -9.6304175946155492 -12.311820502573001
A -13.738873844510728 -8.1603630061963557 14.999272241584036
A -9.4223599481627911 -9.1594989407824166 -11.100642292589754
A -12.062888617733728 -7.7077865030900448 13.745737606824829
A -8.9346925954854175 -8.1348490680162246 -7.9202338763337314
A -4.917711231665816 12.642086381649397 -14.540176384637794
A -6.1628493691747757 -13.619902285903336 -13.683041061609714
A -9.4348628124700973 -10.937734244642824 -14.424606757428522
A -7.952682171923203 -7.1451845243249288 -10.534798300383265
A -7.3192336634706665 -11.960219593477875 -11.597935729507393
A -8.2743814090214176 -11.671778483093251 -11.301853295017827
A -6.5242433510273665 -9.7566362359235601 -11.205192932942976
A -5.043871761640105 -13.534855015142732 14.069472813117482
A -5.2127724279945387 -10.774083094953758 -9.405887462755139
A -1.8729720379293198 -12.544107400751411 -7.6634374725438743
A -6.8589406112028808 -5.9704373285981402 -11.635168909306969
A -2.8114441250642717 -11.01846024114935 -14.899632924799947
A -3.1076506574438869 -10.187312785239378 14.592940955570098
A -4.8887893846732711 -14.177693307308594 -12.388785139018539
A -4.156265684890208 -11.11402312635553 -14.621874707484348
A -1.6198297492674705 -12.187032049439816 -12.396413652061558
A 1.8418022306136519 -11.418769331800029 -10.195165254498338
A -3.6605756217860264 -14.220094408620993 -10.235822801214725
A -9.5458832444923161 -14.272686743662073 -10.327602001241326
A -3.0445147378283743 -11.396946976912654 12.918611140225172
A 1.3045709357179816 -10.944753192344203 -13.724872398822027
A -2.4061088321504722 -11.491677752375372 -12.470339950606906
A -2.3836691569498463 -11.928037465092041 14.429265368993878
A -1.4585429844541382 14.356193314698487 -10.008182728298072
A 2.274363578169333 13.116267959451127 12.918117880158318
A -0.41028449079209089 -8.5048471373638375 -11.55328806052392
A 4.0960428487108116 -8.2616376882415441 10.111064114483289
A 3.8629381518702859 14.575456144569088 10.061795002489117
A 3.3396481340584931 -11.97575527934139 8.3911405251721529
A 5.3946089452932897 -13.143920247164695 -14.717609310917345
A -0.91511734735522188 -9.7983282521605766 14.711241537073894
A -1.3554626917217072 -12.95065679742337 -9.829411468127125
A 3.6533816787157618 -11.953314453935345 -10.43500289960074
A 2.3110825590314241 -9.4768999081242242 -13.492676369808166
A 3.0867004058148328 -14.521073588219663 -13.730358241965156
A 5.7624855401733139 -12.850454288571585 -12.632326211878707
A 3.6339647939208986 -9.585130096930861 -10.796787535875463
A 4.2190935392128788 -7.5760860284570501 13.162886877683629
A 2.8054245766042558 -11.262135742665983 -11.836979115999219
A 7.2298822422404347 -10.924465101989499 -13.560405754816143
A 6.0771694812334882 -10.770142107989729 -10.781976424030109
A 5.9217391943834992 -8.8965964167038436 -9.0892103776458644
A 4.2248036558559869 -7.0265612570154747 14.408049240008635
A 10.898903255705013 -8.910944816505344 -12.720736607882197
A 4.854346150955906 -8.5140697487458183 -13.995313677694982
A 4.9234316564993064 -10.836366687220817 -12.600048220309219
A 9.6744716199215706 -7.1248070508985153 -13.550779220187668
A 6.4195152461026384 -7.6954034735229788 14.826769905589753
A 5.5252306984673663 -6.8468397519543682 14.404668069900445
A 12.874502804530422 -13.648899179472185 12.028791280665615
A 7.9449855559369142 -10.796599855048589 -14.51376993076315
A 9.088327646115836 -12.73741938978706 13.538921633103094
A 14.053270395866422 -12.014263452057572 10.077402169742292
A 13.061572130755401 -10.039582808360811 -7.0413686366266113
A 10.61729867997456 -13.916305674885221 -11.786340308962403
A -14.351458232692581 -10.699557098149787 13.257805554885218
A -13.912765376344037 -12.071154639183348 -14.171622989490416
A -14.056853947621073 -8.5820872413450804 -13.212957330759922
A -14.04901713600343 -15.00442370290304 -11.590612388225034
A -14.873705974753017 -10.708271085115198 -13.321523261935251
A -14.445677964959408 -9.3700402418297557 13.438968953990013
A 12.888766332210961 -8.0202171734243919 10.967885552174513
A 14.504207375803604 -3.3567925355400936 12.289505746803528
A 10.011750626200948 -11.382480004955788 -10.077879451729206
A -12.829486436704494 -8.2079138371897589 -13.801162329321365
A -8.0719831286790562 -8.4907613498571752 -10.690570728799356
A -11.57012122249907 -10.138588294782016 -11.928662141408477
A 10.032273538300879 -11.069713569967389 12.169073040955926
A -10.794645491666078 -12.374144376225789 -14.024366978680856
A -8.4875773155275649 -11.218555663345819 -9.8705450012450449
A -10.663318099757152 -8.3382834513359398 -13.535355089832599
A -12.003284666092775 -10.162693192547136 -11.011955140389174
A -10.31749984375576 -10.724833535903588 12.121184974791989
A -6.9576172659091586 -8.7221214607283528 -9.93534112775016
A -5.2923338311308834 -8.2036551905135706 -10.735992439784521
A 0.0034992560664973298 -14.133423441136168 -12.193916560170209
A -7.8227645168846438 -13.462147062814488 -14.209544404328414
A -5.2925553083049008 -10.416899781933887 -15.041567124562183
A -6.4493922928396419 -13.06570513097841 13.249974911926353
A -5.4029953417683112 -13.051865470790535 -9.0747096084237189
A -2.2699673470203261 -12.151698179459586 -13.218405455631268
A 0.0053022736842656994 -14.904202457786209 -9.2444178570405349
A 0.96772289999409034 -11.589790593300885 -11.985143796706041
A -7.9064135025757842 -7.9571660582418167 -14.656640237814818
A -1.9605134565316042 -10.229333731740017 -14.657789267067802
A -0.63086555004280398 -10.341785360354782 -12.1538514049663
A -4.4997140358445353 -11.079213439611218 -12.634180340975917
A 2.1350213604659638 -9.7496408405240835 8.7246370259971311
A -1.4402224634603396 -9.7424569405148276 13.466722721066899
A -1.2620443262901948 -11.75734555496213 -6.7835956439968639
A 1.0533345920382586 -4.7973790655338302 -10.316822100656339
A 2.0548034558680421 -11.673699500104801 -13.807231418245564
A -7.7378443865037498 -13.641116343564089 13.001984300964258
A -1.1078271519421206 -7.9917356957545911 -13.372971778374117
A -0.78433530109422189 -8.0941234184481132 14.002331814700039
A -0.45098903176052069 -4.5403993958148305 11.006884159633817
A 0.19735194887515192 -11.778488714959902 10.932541538137
A 2.8297131822159454 -10.506945293764456 10.47040158962283
A -1.0143611413674576 0.83553608414863434 14.693371671785837
A 1.7357988371638937 -13.637788198123848 -10.277499753133682
A 3.4610367261398598 -4.288641428764981 -13.865073774373299
A 6.4447949959465216 -8.1473301011292953 -12.323386291111554
A 0.79221465364452504 -7.9242988486663526 -6.4333635576630783
A 1.9247753607980187 -9.2376007154718511 13.49741617797326
A 0.523008504169443 -4.3579985125361578 11.799752244049019
A -2.3883886168159782 -9.4532248885963153 -11.522039192857218
A 3.5284320526610262 -11.35192070243748 12.209464996488665
A 1.2233312956853222 -11.852468726304048 -13.028794539719128
A 4.5364702458116888 -6.667940766817269 -11.475551631028218
A 12.994455158634127 -6.9524083572217412 13.40457865908891
A 6.0450907865033727 -6.8025487732374295 11.715481453140647
A 5.8859953068519246 -8.5009965830225589 -13.952319780171383
A 10.134013081704985 -11.254501812480321 -13.863767383318434
A 11.058124806505658 -4.9351745573015897 -8.8669285801327451
A 9.853297710376852 -10.427133120105809 -14.716395968441992
A 8.7004753914754271 -11.045794930479284 11.228145253809517
A 14.295926668058087 -9.1998731857470037 10.70023243828417
A 11.052471586928291 -9.4908219888607839 -13.658320345747498
A 12.73186836197991 -5.1039753657763605 -9.0109735963441135
A 12.150770503031072 -10.755509672504679 -13.006470936693248
A -12.844438117769519 -8.1170834068357003 12.626100380336847
A 11.754386719779687 -8.8515377142776845 -13.251740033249849
A 11.920359713194356 -8.1545559318844614 14.881935694442538
A 13.83407475213987 -8.3850381039293858 -11.520751991008183
A -14.544752310692528 -1.2068186416821007 10.569788709882799
A 9.2232666551692848 -12.838281208998392 11.743437718440605
A 13.007369856495732 -8.6420746935718444 -8.5705983477639229
A -14.81579649347648 -14.971034558306851 8.1320362639152002
A 12.77825219780606 -13.017938727281006 13.036711482256582
A -11.719541694328678 -3.1580164857353581 -12.370059541081098
A 8.6729401519225657 -7.9722148490677709 -13.357214112892919
A -8.3926726723304004 -6.6180394068154174 14.834158758206112
A -13.287639442028775 -1.1607886406523749 -12.269710124170064
A -14.916607054829203 -3.2400136056972397 -13.686973227501483
A 10.438952940374444 -7.6681158396085003 -11.860278901953073
A -11.631084632724795 -3.9070422184605866 -14.185487342596254
A -10.619034019563321 -8.4146021372927784 14.380134596819406
A -9.1385188709383645 -9.0787454618952683 11.210399414170075
A -7.8535968573352672 -2.7905580220776041 14.527470387461772
A 15.026607484785877 -6.2883092253985753 -13.250106700531996
A -12.233485713232689 -9.5280906340340064 -13.822474751831733
A -9.0413642855996201 -4.7852750034087475 -13.195881088197419
A -9.2764201529458834 -13.386596422605447 -12.96480653494079
A -12.296796294134872 -6.6928168365435665 -7.7937838699292437
A -8.5480850217514011 -10.714948481698189 -13.937090511038924
A -9.6270256126045606 -7.7041689502260633 -8.7871233437361447
A -6.6529931365749357 -8.4684763017608837 -13.130054930746494
A -5.8552429372284482 -14.360889584408421 -14.304039147147776
A -9.2482261672951509 -11.207138565474867 -12.521145829134735
A -3.8621497679746417 -5.4670093244796183 13.916530833204089
A -4.5084412071063067 -11.097094122639817 -8.6913107944940311
A -5.9575396442394455 -5.9338617370322195 -10.387080192843985
A -6.6317727847855155 -7.4504012238468826 -13.31922355211519
A -6.9200612225778295 -10.167243865154189 -14.210500418953423
A -4.772878505456073 -7.5307919311171796 14.030557408820401
A -7.0443487966459317 -7.6278308313245402 13.188688794185451
A -3.1255454006657972 -8.7614261771683122 -11.594029441129274
A -5.9185897186295069 -7.5524460709820191 -8.0533126754141975
A -5.0229345718442202 -13.195739188156468 -8.0622410413224745
A -5.2179497160392687 -9.9272936621966803 -10.069737912246227
A -3.192588772693834 -8.5115791553838651 -12.785725343363428
A -0.66612983128127357 -9.639692184455221 -12.917678627885515
A 5.743213839742606 -9.5016149825474088 -10.943772128390039
A 1.2378260267261822 -6.4048301084061201 -10.542640412333336
A -1.9542630854670422 -5.364660353815875 13.356271411894545
A 1.4451188345979606 -8.5363337357166031 -11.028371908140354
A -4.910611128468986 -7.7815099044484901 -14.229242821452313
A -1.0869843554632006 -7.4676339999182497 -15.036782527622528
A 1.1734096555800946 -8.5667488060788948 13.215548000714898
A -0.1890838621247935 -1.803424198091693 14.793116437548756
A -1.6719759875983673 -6.3838451506362048 -10.760921230724625
A 1.9988019860938093 -0.39375696724643033 -13.501353415125685
A 8.017217099132445 -8.0405068652866447 -14.149740862332479
A 0.018986076939161059 -13.579916869088086 -14.748693632645402
A 3.7037914970392842 -8.8590373990242064 -13.797014326115157
A 0.29594877183553842 -4.4737063396039627 -14.346062843301359
A 0.69559399530968535 -10.796737447807667 11.246506109504359
A -0.59531552447745184 -4.038937571449436 -13.321412830519247
A 2.7467717676941019 -6.4308772786564772 11.769809478092068
A 0.31268098308095349 -10.30279337877435 -11.783878922336612
A 3.7537035712576508 -10.846697613878044 -12.596369452477562
A 2.9029917127813287 -5.3690603307956088 -14.912361359922075
A 4.3302677864150612 -10.382349108432594 12.85660071234866
A 8.6970899342356205 -5.7047822883941626 14.98974250411813
A 12.541418991929108 -9.3416726543421458 12.433072872461196
A 7.0746286006568919 -7.1669269502738828 12.575098969288819
A 7.273940267048487 -6.3602665102627745 -13.690111964191168
A 6.5423377049626836 -6.8054465990056059 -12.76062920048974
A 14.198380410387978 -7.9734308105990674 -12.543668957562412
A 12.159136177444459 -5.6057687092873918 11.902300596687084
A 9.077187687543443 -4.3562084249613795 14.814432529522858
A 8.5666927644734852 -6.7607255826408919 -14.76015489275906
A 8.3784504596841867 -12.155670840889774 11.95053881947617
A 10.981388610117001 -9.2719619235321762 -14.972104759400201
A 6.487825346995467 -6.6663289772849552 15.007452160922849
A 7.884580907445331 -5.8378733530181623 14.127284314742708
A 13.858339265907578 -7.7537391738246635 12.410127377636169
A 9.8238648104386694 -4.3802169633957551 -13.739350063992529
A 13.252056494777646 1.2089611361854227 -14.204357576700765
A -14.898685648890059 -8.3165224695937052 -10.256873303718038
A 12.74880098487583 -8.4269364200331438 14.068910537718573
A -11.462855348289684 -7.9339692969240616 -13.003553365883295
A 13.432685249700844 -1.0312319848001836 -9.6623966290041068
A -10.422491046639959 -6.5244171129024311 -14.670759550161488
A 13.825243010212127 -3.8647683810750202 -11.579563456096304
A -12.048034750026334 -3.8592847657507559 14.679264453799396
A 13.982505872327076 -0.429326649680702 -12.957590077553121
A 13.470547185518891 -1.2821568934566112 -13.137792852016114
A -11.449000170506803 -7.750520923896028 11.704273742022286
A 12.763624262057286 -7.4602137808672309 14.365474603804978
A -14.779139077598531 -6.5454733946942616 14.949356702358637
A -14.809538630511685 -9.1898422382551299 -13.708201470129188
A -8.8840081678493252 -2.5596951443463736 13.683830185852736
A -12.549624067338428 -5.3562543809637182 -14.02568468137744
A -13.058591176559988 -7.0933162496733742 -12.345469455818703
A -10.042847216241173 -7.5890245491469628 -14.181808021370145
A -6.9401339192031823 -9.2026093882194964 15.071600067481132
A -6.9443685989094224 -7.9950349550495057 14.41435010620382
A -5.9673882672447904 1.2961616197527348 -13.637800391213727
A -8.304557530809511 -6.2101242227296645 -9.5847394521567466
A -7.5421796435896393 -5.7576713345000252 14.561195998679414
A -9.1559901584553778 -12.282232527538103 -12.654331365503156
A -7.1158438195498928 -7.7121696701967002 8.7952148550646516
A -4.4741998199776383 -11.673405748879194 -9.7300340414584383
A -7.1116643107654607 -5.2362953711546201 11.159481111970116
A -6.492103186531244 -11.381592531369719 12.896759151455489
A -7.3821571904555405 -9.0276809876745592 -13.600147838447688
A -6.1707424419515586 -5.8491765155380691 -12.355705497710295
A -5.037240528459769 -5.1049419504006179 -7.1031080075235442
A -4.1260330100823532 0.47424952884075483 -14.387157673529272
A -5.2925375497744902 -10.388888341426334 -12.994658004872953
A -9.8190180301178369 -4.12323890926519 -12.75399217251865
A -6.1844400715670664 -8.907851516378452 -10.694653974384156
A -1.242737979845022 -1.3098943141175663 14.984181266002848
A -0.39411529046791915 1.4560229094689456 14.207062370906325
A -5.103003404116599 -7.0770779233151178 -7.3273985605733705
A 1.2818096770684748 -7.4541826433838674 -11.033514903268248
A -0.30964785958237095 0.073548850086436315 5.3156122573639077
A 0.41286345611413816 -6.2641575788466621 15.001817733575031
A 2.7287713354480547 -7.1719212797653471 -8.8204572906593643
A -2.7646707307448168 -3.111892661260399 -11.913729430695373
A -0.72043776737235032 -5.2660982749671934 -11.212607550217825
A 5.9116233623931747 -5.2213244230840381 12.678432683185441
A -1.3129656842730246 -11.130085658387738 -11.454353087938808
A 1.5868524041656047 -3.9411928913279932 -13.496213154017207
A 5.0078360075682431 -13.709116608744656 -12.56083559237762
A 2.7232470499451389 -7.2402583906586946 -12.99765283152878
A 5.8606133820416275 -1.6903862761626012 -15.004365796663357
A 3.2237074399645818 -1.9680280206689846 -14.032734712451115
A 0.43366005392738161 -9.5279850109903812 15.070826113210192
A 5.3850802099116191 -5.5000941817144016 -11.819353960805246
A 5.0789934649352118 -8.6578277701772262 9.8328183579659836
A 8.4920011894848084 -6.0270387951421149 13.066662130169476
A 5.7485061170003755 -5.0690594252583043 14.454546798497834
A 4.1360668167028525 -3.6393840201500005 -13.332511539903043
A 10.052630702510148 -9.4763844049282966 14.871943677423735
A 7.1123396227773199 -1.1115068414093312 9.4467291690212427
A 13.241302472135908 -4.7881758317189309 13.233050163828242
A 10.184797344204302 -3.9011595761425895 12.600573810937647
A 13.513675483985555 -4.834057972472638 -10.445305654621432
A 4.0590036318115699 -6.5816681857059232 13.053581517736456
A 5.1463795892238355 -8.472718955066199 10.845765373851387
A 5.5914581011150775 -6.8870229409320087 -14.726492391590606
A 15.022586562424364 -1.1591909190228797 -8.3182668328173044
A 11.339175547542029 -5.4200062743778874 14.649805322536862
A 7.1472314235751222 -0.71628787230072932 -13.703025848404799
A 13.787615952789118 -7.6622755054759528 14.728104665631584
A -14.877120231997788 -5.5998393731282317 13.309158961379012
A 6.9589072213168439 -3.8973284664003764 -14.838561296422068
A -10.473260514478453 -4.7958568924884171 14.873029300367918
A 7.6095835501675717 -3.4791074732135834 14.592199258209128
A 6.0221987346379446 -8.5297582083595884 14.169266603786662
A 11.822480622920583 -6.2388094466982977 12.718146092650931
A -13.927886898435659 -13.955868124575169 -14.935805219025267
A -14.623534907782862 -7.0332147763089745 12.868288225395441
A -14.651327678731244 -3.9072363631939591 -10.286484954844001
A -14.009430312460577 -0.67111505416192385 9.1608951075578098
A -13.22675717682157 -1.5324284413081255 -9.9662130718307225
A -9.145621058419211 -1.3476137464758555 -6.9059366591514575
A 14.071361244380439 -1.5737373902171081 -8.405008740563142
A -11.768531698010761 -0.40552208636503773 14.545762603545755
A -13.767514771207662 -6.1207141646247525 -11.127891903243324
A -8.9527613911681723 -3.3935231500795529 -12.534192509147655
A -8.7131893886793002 -10.364246617496683 -12.999980951075313
A 14.977890273224636 3.0282971957687757 -13.2710777342659
A -9.6914756059537321 1.8482398600757544 -13.523749615244915
A -9.8908112519279232 -8.1830167417060693 15.08010266301884
A -10.074774785771423 -3.3748402965902389 14.646068495346871
A -10.166323248138433 -6.8396117445328715 14.287289544002284
A -11.524528405449244 -2.0074905823962981 -13.959518581077244
A -8.1155514449715351 -10.801035235341088 -10.786249352088152
A -8.4996398080320912 -11.208836071484019 12.657267172719818
A -7.5260190443707566 -4.3009238436390085 -14.318296338507199
A -8.0142639561220399 0.47450184682249413 10.990715396329255
A -5.1818364742550269 -2.262209332503196 13.068133637499335
A -8.1614547967252857 -4.8286309879652611 -10.370800868349365
A -4.7210814334485791 -10.233260578620831 13.646099277538287
A -5.6673388640062976 -0.066171001937331261 15.014750606296827
A -11.037250628767323 -2.8545325325446473 -14.298558797428861
A -10.590142825298489 -3.7043565851460323 13.173788368126161
A -2.4926394162442791 -1.0386298479548821 14.363735588786156
A -7.7968415403949027 -3.0784662203588975 13.513570823236936
A -2.8560970944869188 -5.2562884217311323 13.927737105246944
A -2.2899605032713515 -14.426614914073825 -14.655995972310194
A -6.8072022678151374 -2.2218934948771141 11.769845368795755
A -2.5345245409113786 3.5721625581929888 -14.710655543861623
A -3.843702896430766 -2.2503128092101998 -13.139586324374037
A -8.8246857755212673 -6.4164264873387298 -11.315243863470251
A 0.022946857665013632 -5.6265420311341057 14.104604595979394
A 1.4277595058316941 -8.638112306478126 -12.317420214699865
A 2.4149629404682251 1.5919591082827571 -14.931540084844515
A -0.89087772423892775 -4.1503438038791245 -11.276976136218844
A -1.6989396223249962 -1.7441859519999852 -14.013106468924544
A -1.4194970510347775 -2.4464697206449566 -13.205683203419216
A 5.9518987495722948 -3.7300222415884785 -14.738285130023375
A 3.5185522077394493 -3.2831666278369593 -7.3683454760383365
A 2.1724968217994212 -10.166869815795891 13.024218792806154
A 0.96423699208567715 -5.1568792002923907 13.788979267984653
A -0.5955014632054807 -1.7166358646000042 -11.212537622799388
A 1.3147027116155428 -2.7967578678971639 10.981704813526941
A 2.2120320781436167 -7.8586891627629702 -9.4434038872820736
A 4.1254984547759692 -1.0038964042419729 -11.037161573078841
A 7.63954994822552 -6.9349234523764371 14.376667711032978
A 2.1207577135616296 -3.6962235439318181 12.618916027552915
A 1.5855933527310651 -3.6382729263827072 11.585237564865935
A 5.917146779885611 -4.6007198494522958 13.471048889033735
A 1.3898098652936537 -1.0823017985802967 11.511343773644596
A 7.110767081988385 -6.3736877128286418 -11.955210539822975
A 3.6980132486279969 0.79702563363754841 14.333409932698254
A 12.34670332355539 -7.9984935714600649 -14.320778183642158
A 6.3631004308395198 -3.027664384787061 12.19003229820701
A 12.460715853067967 -5.2915936736156297 -11.980668258815495
A 5.808006993945928 0.652338337660332 12.409575395385541
A 7.9435069195326324 -6.0862214734204709 -9.9225646522968685