ITEM: TIMESTEP
5
ITEM: NUMBER OF ATOMS
23328
ITEM: BOX BOUNDS pp pp pp
-15.08190489966774 15.08190489966774
-15.08190489966774 15.08190489966774
-15.08190489966774 15.08190489966774
ITEM: ATOMS type x y z
A 11.507290328435005 13.480198618866366 -11.998599855636991
A -10.287467286491379 -14.817739220534792 12.329654451838925
A 9.4851807422020915 -11.569610736361318 -13.990189397435049
A -12.997106044686742 10.647086571473007 11.363705555426797
A -14.539916615345568 -11.972228432647562 11.650068939725225
A 12.305074520538046 -10.939470273551082 14.998219388257617
A -14.186143669096959 -15.05715752899212 14.43506053054533
A -14.740390120826259 13.98107311587934 13.12325852020046
A -12.891681838768948 -11.128004487296785 -10.203385168517224
A -13.449495030662549 -11.34288711780929 14.545052310050126
A -12.485425275451529 -11.47634813116421 -12.262300801152326
A -7.8727802807865483 13.58093772507989 13.833126338516447
A -8.4142314032094827 -10.448600779165206 12.495616002688431
A -7.518539322173706 13.929285877031383 -9.5779283675001867
A -9.7327639221386502 -9.9385207116056371 -11.982910681199035
A -6.6331024657091469 -13.808042846689386 -9.5071021169060668
A -7.9873715957965548 -15.05947127429711 9.9697747533966776
A -9.6183418305842991 -13.222852946436824 -12.57967965129632
A -11.946976335042841 -14.953547809323885 -10.174938675886018
A 12.100707062562526 14.439010082816132 -12.224243373215062
A -6.8482189448143336 13.445243133210582 14.095580500219494
A -13.332056557581796 -10.110835707427489 12.224574284672336
A -11.726858179382413 -11.015102166656153 -14.505418451013448
A -2.8957689271368876 14.658290296751167 13.192998283605215
A -6.6012053108955131 -14.628121852198147 -14.605782660136507
A -4.2966949856405119 -10.702294883804976 -9.3847989007881054
A 1.9191288120631864 -14.745948844413672 13.999394580417864
A -5.248433943378541 13.640828305440451 -13.648022905843916
A 0.057307529446951846 14.135116918692116 13.705907149970015
A -0.40182187065681496 -11.326910864137433 14.753445210660615
A -3.1968328907334707 12.545524488661885 -14.315551350791475
A 0.029787832859517867 8.6769605201987208 -11.225218087181419
A -0.57304770078211464 9.6592047909879906 11.276499882616678
A -2.0150155561436018 -15.05928435328058 12.995655952457204
A -0.74422611224288726 8.4917036337834961 -12.883527862182603
A -0.31293613581699925 14.867259245472075 14.95008505912074
A 1.3619763355515644 -9.1032379094862499 9.9038427992212927
A 2.6942401412235841 13.393089716238983 12.949336755633913
A -4.9680047880017213 -12.934477871396101 -13.965661488213014
A 3.3206072100295025 11.825063607885818 -10.988620944653889
A 1.0480852687432911 13.540795400680333 -10.101514120572739
A 1.8299215383054779 14.131998304879076 -11.269351417646774
A 7.0905919543062623 -14.683662458498967 -5.3253092549351884
A -1.5998600263937472 13.316355552611002 -11.443467747180064
A 7.3167462770099236 8.9425812960464572 -13.550263036714828
A 5.0958554322514305 -12.950141589631173 12.182639543995137
A -2.0067779527490606 -9.8911295681053595 -10.167977851789704
A 2.0564119700367876 12.378018530083686 14.058978938067286
A 6.9616752701280102 9.7834285001798396 -13.077137330915219
A 6.0713401869678716 -14.848249108616551 -13.408152168288817
A 8.4419342281048753 -11.626819742459938 13.260253538754567
A 8.5032899532561448 14.785621561159825 -12.644449220766182
A 2.3054191250393381 -11.83896621678646 -12.42743702823503
A 10.027226197748192 -12.07131747806519 -11.197661411071643
A 7.2881544271805847 -12.695951481304421 -11.999669992822479
A 9.3437150348442319 -12.153545596011904 9.2425244297971307
A -14.708372775280763 13.718620470912258 10.360296175966578
A 6.1918787588030613 -12.810046369767445 -14.154209484444285
A 7.2462324624240768 12.632821367228132 -13.034956719881848
A 7.9749774812243626 13.557961246519721 -11.413081672400613
A 12.582989871449328 -5.732297292030534 11.888964981985048
A -14.696009543443893 -14.228468773790089 13.052285736373062
A 11.33012244759189 14.959978549536023 -12.682903369027205
A 5.4465343251450502 -8.7752058717870494 -12.522357692179078
A 13.171831000801072 -12.3537059356802 -12.246162952726413
A 12.112300949606972 12.649330481257213 13.917751279791851
A 14.870062899981042 -4.7914885655084412 11.740170239442726
A 6.515475079841627 -14.143337199331121 -9.2041595433958072
A -14.725179651691649 11.455287534660712 13.157551325545171
A 11.020621499405525 13.098225551778066 -10.458470681395225
A 14.644587392093035 -8.6370762213348691 12.67294566049166
A 8.2739143235864283 -11.467358275005875 -14.188293629730422
A 13.009517486943025 -14.075635699706062 -12.366193056449422
A -12.989628427861442 -11.452953737469917 11.985861572866643
A -13.992238292394051 -10.871094392565526 -13.654064383311455
A 13.769800785562786 -13.420810644715781 14.657474916546773
A 13.443759327480839 -5.1481950063394804 -10.497072494051451
A 9.3222930814662259 12.851306944887673 -14.268023001742687
A -12.131882240572946 -13.172695767537922 -12.117035052867189
A 14.442259067205523 13.256482318237916 -13.142895305450253
A -8.9786519142353143 10.799402230459501 14.309687923775666
A -4.7273290977293625 -8.2292493935462723 -10.930980540980595
A 14.624951354163894 -10.698192047981545 -11.664142434016538
A -8.0156874980273134 -14.274305633800664 10.978062936620324
A -8.5889418345212984 14.921786845259664 -13.776093045035884
A -10.216352717931501 -8.9976284782347058 -14.659001304555979
A -7.9620225992462856 -8.2985069916909513 -13.176422842427478
A -5.6217230341228044 -11.886453329324954 12.880377263648981
A -6.8909951100216364 -9.4484630147809039 -12.369579458606884
A -10.228398715252915 -12.577003052589072 -11.825805168922138
A -2.6745595568465279 -11.947203086463736 -7.0996663603067498
A -8.5283107240387626 14.126572122612385 -4.0755321501914672
A -8.6993334983003248 -13.425562751048664 13.068343146279457
A -8.2724923685609024 11.653197510918517 13.01925904727899
A -13.598837982007055 -14.171274807497095 -14.181477284285448
A -3.2125855397628063 -12.477629216265758 -12.441970095201174
A -1.8485569991524755 -11.526476722375961 8.7749923171888895
A -8.5352412877101465 14.132868179832666 -11.214895544102056
A -2.0551521205920187 -10.929714357412957 -9.9080864666625548
A -7.1147533930655795 13.702458278762411 12.220593332360101
A -6.2536060497226629 -12.686525227432689 12.969759200814147
A -2.9330411745138312 -13.628309194594124 -14.466711180366213
A -0.84046669789989836 -10.175023776514665 -12.502847886079806
A -3.8061637348525648 12.09875165858038 -10.988156286475572
A -3.9626080400680594 -14.048646546032559 -14.982344163428655
A 2.3938976455209589 -8.9082150256446084 -10.245814849642221
A 0.59001013770777466 -11.91266066860565 -13.610726919759633
A -3.8891990247563082 -4.5951205201667022 -13.386492190511925
A -6.2924555356660514 -10.929910538952781 10.561644938622106
A -3.4429664874865105 14.346074616017503 10.890737233151176
A -0.74971451689885871 -14.047334201888468 -14.632057543002789
A 2.622798759253012 10.355347203425183 -8.195292394630453
A 0.19840894926446148 12.490031490325984 9.9933572027710849
A 2.0947973082181681 -13.703215835329321 -12.900901785952898
A 3.2358962516045158 -13.410802718105401 12.844508967466034
A 6.8552197743796706 14.091931756940486 -8.6260472850541543
A 4.5860932444635898 -13.137262754495781 14.933223970167051
A 1.5592733754651702 -10.806779348782751 -11.716844894229798
A 0.80479548984050209 -9.5841543026816787 13.87817066649189
A 2.0268847867048128 -10.336041203288238 -14.38658472058022
A 11.608983539140455 -9.2600730353836074 8.6339490891521127
A 1.892473251345391 -6.6568746432709709 -7.1588175224775235
A -0.54730250624318422 -8.1911482212938242 -14.532601960589178
A 4.8287896484854897 -13.919803493753658 14.090366061732896
A 9.1991238628138454 14.393441093742602 -6.6720851708525943
A 10.983021190054224 -14.388503857575655 -13.605975675450821
A 7.5173011933164036 -13.563401553807605 -13.295791509401752
A 8.166307751181364 -7.2662666545302264 -9.7956474530032018
A 7.9058048005230299 -9.7651835926406338 -9.5410936552259606
A -14.058540593378595 -7.5696427453855195 -12.898700451892106
A 4.27539499366938 14.388366575208073 13.325581356506499
A 7.3752101033121011 -14.978720547909644 14.243844268561174
A 13.382530516797789 14.367723293355764 13.419716159602412
A 14.386492885405804 -7.3259663805554691 -12.043838981455879
A 13.424911236988162 14.267608691762549 11.576299405880924
A 4.2497482881038353 -11.406198965105006 15.001803286577784
A 11.068358606005095 -13.032470476039697 13.327321629641743
A 11.173875279339656 14.879749521734226 13.190264283472919
A 12.970461751614295 -8.2599254499211359 -12.625660274495939
A 12.27135028843521 -8.8614971740039206 -12.144884342056015
A -14.384520443939698 12.822376920559687 9.6065893686743973
A -14.210971588928112 -11.52907549044142 -11.477166350644715
A 12.541680492142167 -14.727158432572271 -10.81404308034633
A -9.4398084238322397 -12.030801957392882 -12.134062938256566
A 12.254439697106504 14.152369897046212 11.819618574782803
A -12.266700150284896 -9.9814614249006741 -12.202579001137686
A 10.861535181784886 -6.358395461327019 -10.138549669439016
A -12.871420864178297 -11.696457140634502 13.656829520625795
A 14.159138471143049 -12.187130714395471 -11.53758891880711
A -9.567387859369159 -8.5434934278057657 -13.093734537036328
A 13.721395682366825 -9.4244533560920978 14.236962218119709
A -5.6658953736561104 -10.819119155862927 -11.562542775778477
A 15.079515053639122 -7.062489801316632 15.020960076666329
A -8.8412367255834461 -8.5828543388622371 -10.920145559178891
A -11.974170919002086 -7.0189139402002052 13.516647801689549
A -9.2656682539629802 -7.7473939775898728 -7.5046597381993152
A -4.2674572350716069 12.932473589429893 -14.302818023374964
A -5.3421686018814611 -13.731570575062124 -12.869937130684201
A -8.2885350845387453 -10.645266569417547 -14.0342951195732
A -9.5536145317318439 -7.312359903097958 -11.329483749969633
A -7.0242135454280143 -13.604012314419515 -11.393763826079383
A -9.4715244256111291 -12.289149970899166 -13.109700220699112
A -7.2529779640194594 -10.242824484349455 -10.702675628160288
A -3.4310761802796401 14.806932396751352 14.142536172604697
A -4.6539781733126961 -11.784612373615763 -9.0545854763325408
A -1.8938876267513427 -13.261143056717346 -8.4757541015242506
A -8.5640307904847344 -4.6599500751604479 -11.173172166828287
A -4.1626636797746022 -11.411484011751822 -14.733809410481093
A -2.6960429197460121 -10.312865941328107 14.37703588696076
A -4.368197091815512 -13.857361767958928 -10.925180340243454
A -4.7792365775116785 -9.9968065349561197 -13.851478967006578
A -1.9462342024277526 -12.836978205988435 -12.226741306778143
A 2.4863814788847014 -10.144451585881132 -8.9921075592146522
A -2.4201420966682052 -12.930670052122558 -7.5423634719977573
A -10.031225891220483 -14.271344558698539 -11.585268340043459
A -3.4531930920152432 -9.8395247336121407 11.264035387586533
A 1.8922362339302454 -11.452013677605464 -14.198582725751505
A -2.6059372794666511 -9.2633592577279877 -11.002503215351572
A -3.9199413703404065 -11.3515484136884 13.896333892877157
A -2.7221229270955063 14.637542458362597 -8.868335509836438
A 0.68468000388979899 12.039719517684661 11.982169291131333
A -0.19543835475147908 -7.3022899205004661 -10.819764032154847
A 3.1042320642972729 -7.9981073657772388 10.063585778064679
A 0.76237227063856816 14.136427547547273 10.90458674648198
A 2.6848996422151985 -10.433528520461039 7.7685106652838334
A 4.3885153675435244 -12.346271045739648 -14.331261486690209
A -2.1893675419804555 -9.0140696294783975 13.758326665913899
A -1.6097159524440328 -12.057328971951776 -8.0231830717721007
A 3.9635947542843364 -12.268324073964553 -9.9747521398976797
A 3.4096720456121341 -9.6509505441883618 -12.957099376290705
A 3.0459451665574844 -14.413816743093872 -12.96689164409386
A 6.3258886367289282 -12.144930054906924 -12.18830639339471
A 3.3839106896064366 -9.7230847803988052 -11.728604888710557
A 4.369367420775407 -8.8710018859532607 14.296793297951435
A 3.6865124854456188 -11.586806615957904 -11.260153770410559
A 7.3970013466856512 -11.592646763475978 -13.620654523148328
A 5.4520343497966062 -10.240802602566648 -11.826309854346212
A 5.1054579307926344 -7.8073265085579839 -8.8649225117521535
A 5.5784866379160905 -6.9141569488160757 -13.597642718347139
A 11.014572496550112 -9.3109227697544661 -13.600912083522601
A 4.1854428406884852 -9.1637801337189799 -14.872629466985224
A 4.506341801679759 -10.30889298116927 -12.918122943190868
A 9.2045200682118722 -8.116962054967745 14.25101710914732
A 7.1538645413616049 -8.5682247905452318 14.621425872924881
A 4.702167752060344 -7.3075945241972313 14.639290782579092
A 13.268998262781128 -13.204456387128443 11.788283173521728
A 7.1522904589264682 -11.347315654043184 -14.601835191657942
A 8.9129004671883969 -13.210428043311024 -14.316261343518475
A 13.892522407596752 -11.57137494916568 9.4533228565791863
A 13.422587199961008 -11.661573339018943 -7.4785129325488233
A 10.787487082102686 -14.917650122853578 -10.290952504616317
A -14.424809767116086 -8.3054190353344666 12.186147232307926
A -13.447421569214848 -11.328918288210732 -14.545210038125346
A 14.609308243137766 -8.3982599922604066 -13.266038881931877
A -14.785493966616839 -14.958492358534484 -11.616788363464458
A 13.112268249722726 -11.224391628059124 -13.684320205243093
A 14.886267625389378 -10.406331846501992 12.025251189269261
A 13.844004461113196 -7.8277856016902172 11.353277223445376
A 13.465116422324659 -3.0039638873691161 11.684292370636522
A 7.6152262853495332 -10.949402687859214 -10.419178891260108
A -13.748154679613911 -9.8395891371765263 -14.099360505379213
A -7.6747890604759039 -10.323636861511636 -9.5049302607004194
A -11.529403217568577 -10.891206155553125 -12.56318847721808
A 9.7262304641308415 -11.636799782302985 13.289446956356654
A -12.487226022362064 -11.388755645748974 -13.322553843757699
A -9.3766825420440796 -12.96313503781157 -10.281177341117738
A -10.699817198512628 -9.6314961260554153 14.560295787960468
A -11.635193970497395 -11.007486274072088 -11.490630923149181
A -8.950357175206392 -10.590592939059656 13.445678977394145
A -8.2666842592782359 -10.550602765482701 -10.769383777629267
A -5.5414438260876944 -8.3613439467265636 -8.8512096134803215
A -1.5987750269665655 -14.558553878772997 -11.78941502154818
A -8.0833278969239206 -13.261110937385279 14.310953349317892
A -6.1614454675202079 -10.722769959355585 14.999349642191913
A -7.0863665784959942 -13.377157610553654 14.308233294015993
A -5.7517945913115094 -13.197936587472412 -9.634640607698417
A -2.8683693709059495 -11.482808315027416 -14.106396062055138
A -0.23117835039471138 -13.840045658891551 -8.3820952711762295
A 1.1925150474820958 -12.416232223740494 -10.377464728220758
A -8.4250152979352837 -10.210789733574956 15.065413330803525
A -3.0989411787518208 -9.3140882378215721 -14.317180611887215
A -2.100909721184145 -9.9912131560423365 -12.073778275541292
A -4.2346663588650459 -11.26451421378419 -10.785511965866187
A 2.8662337463613072 -9.139121472795587 9.8540104843884109
A -0.85697457472168703 -10.631168073001161 13.403108052332314
A -1.0429017438942809 -11.53448390918051 -8.667360918612923
A -0.040169204782394552 -4.0401587136321471 -9.4324929826907464
A 2.6461311934188321 -12.995137210753159 -13.487245679232435
A -7.3450230127101834 -12.62159633587145 13.202456683242952
A -0.39740693749169159 -7.0575983741534145 -14.078979426752054
A -0.6174907071191742 -10.024633378041282 14.451997820036331
A -0.65021778883024339 -3.6596835292887171 11.40125508104388
A -0.69285822317445245 -10.841428614166317 11.45487936899625
A 1.9684006554805915 -10.292835274783039 9.8106610577737481
A -1.7118453772879141 -1.5293518952613447 -14.443426425795231
A 1.7810398372528324 -13.166640602366931 -10.903953992413816
A 3.1628974331064783 -3.3740309742425985 -13.302119065805465
A 6.252775278710728 -7.5104142696730136 -12.919150819605999
A 2.7246128484867964 -6.9822081895432975 -6.4489961635765276
A 0.9982668002183902 -9.081489987492505 14.796938911578756
A 0.5720862606595114 -3.9596336223496151 13.026727355129786
A -3.1774564223364794 -8.2336933543735977 -10.813044525123221
A 3.125475802225183 -9.9751170159352984 10.499493549198057
A 2.8682272026093507 -11.118553419251324 -11.769339931407487
A 5.0265921651530618 -6.856778108893244 -11.663692976501286
A 13.705665721151238 -5.7158445671539937 13.475641298414287
A 5.0853974921160745 -6.7539779045559296 11.846549605646626
A 8.3935710517767763 -8.5963958418552089 -14.144948850454593
A 8.9185198819377387 -13.466181129555515 -12.997272864324588
A 10.937986743063961 -5.0798871367640235 -9.798248121189415
A 9.3594424580673152 -11.295336786157943 -15.014232667748079
A 10.312184202079035 -10.745870170173427 10.564472117496409
A 14.096056385029071 -8.833886445391947 10.754407587839845
A 10.090939755421498 -9.9190625832423471 -12.826651650125964
A 12.71208863648476 -3.135581679665786 -8.533398917634198
A 12.408125209311107 -11.65434185196475 -12.943463519240671
A -12.400323191825796 -7.6836451844121889 11.409887872618318
A 11.693342179801942 -9.2756835461086187 -14.454534641624848
A 11.074933006821947 -8.0905841626129948 14.451632879349786
A 12.472267960742998 -9.4159837644055191 -10.982254959204527
A -14.552890336026312 -3.2433548822944083 11.514806679159602
A 6.1596339180874082 -13.333407169932897 12.822923051833815
A 11.419749486196201 -9.2717539716630668 -10.067671465458947
A 14.872060192952912 14.179339659067114 9.174516473600244
A 14.098987839812683 -11.579442973771664 12.489408344470299
A -13.308739745088362 -4.101519676530561 -12.345923507528829
A 10.296483438444232 -8.8740725947212002 -12.893340874510065
A -9.8428936628939603 -7.2378148677874732 14.477963094401556
A -14.337950774672114 -0.97884686595211079 -9.4941434008878343
A 14.686343002187236 -1.7013787396774089 -14.414950803976017
A 12.410499082259671 -8.4842080787279617 -10.510243867872978
A -13.007083277015239 -2.6715014986565695 -14.01347687854657
A -11.50010952289877 -8.7796933080641981 13.017378681693458
A -9.7307430215837201 -9.8697831677822769 13.5274243860156
A -9.9407195885759645 -4.3097544708204518 -14.784363303766805
A 14.847928770851677 -6.9670425144068755 -13.207475353359751
A -11.672274772660703 -10.034954531155076 -14.151112941610537
A -10.100217255429831 -4.3373785701129473 -12.850466339198492
A -9.970858781586605 -11.286780791468397 -13.092182372410782
A -14.418466443716607 -6.9590337894455567 -7.507322646262053
A -9.1606454288788584 -10.794702286315182 -14.652086275083539
A -9.1159465065001264 -8.9157148605463501 -7.5161263917934749
A -5.5043378427222605 -9.4601121353004807 -13.286895064275198
A -5.6903368748201562 -13.870597375470201 -14.044656580025059
A -10.996853273193322 -11.023138137773929 -13.739211503513474
A -4.3437348576961821 -4.9545906605222312 -14.468427908565598
A -5.223427028535383 -12.386573086821997 -8.0593454137625251
A -5.6422349768529569 -4.1096127122018693 -10.379228755471479
A -6.6472834820209616 -8.9001240318256603 -13.213951564001725
A -6.6484832942990408 -11.665581853333117 -14.028643572638645
A -5.0044218788675643 -9.1782205505262038 14.859513742569026
A -9.1730795393135871 -8.057381602983849 14.283709793809322
A -3.7717717946198817 -6.9729261353599457 -9.4368089608548456
A -4.7013770932966503 -8.7011723642192287 -6.9798832292589177
A -3.5376338963531877 15.038448917160292 -9.3024906129811367
A -6.0894109260746641 -8.5487666086153578 -10.505506331295017
A -3.0545612233422506 -8.6691594502100724 -13.007463615181935
A -0.86438273400792187 -8.9302954696777732 -12.739323898612334
A 5.7200822134529341 -9.7261575818257366 -12.786508134780156
A 1.7604273131410564 -4.2444249683658093 -10.335195818762726
A -2.7052530378623136 -4.5173857547286156 13.550060959020698
A 1.9642694244913281 -7.8787472746082114 -10.814914562615554
A -4.3880648720505393 -6.8617264942090435 -13.096519441026809
A -1.5490513052274211 -7.8028080531397688 -14.275931545468431
A 1.2265725211479017 -7.5090088685779728 13.65692000297938
A 0.069287182524323906 -1.6054255408611489 14.188393127064213
A 0.42000279755583536 -6.6205006495662655 -11.344936227021929
A 2.6910686550350147 -1.7368033540556003 -12.066464847337212
A 6.9041671131033535 -9.6907085003868385 -14.470651054004662
A -1.4937462689304482 -14.58641818871344 -13.294163121257458
A 3.4998343653636232 -11.555225444717529 -12.44334463231897
A 0.12932584417302401 -4.3449141046543716 -13.622038352310295
A 1.0207874837780504 -11.026466476437147 10.725953899604852
A -0.54433895946734634 -1.8308054971491337 -12.754945872870461
A 3.0186875734635992 -7.7979915464204481 12.94154110385673
A -0.072568782575382157 -9.4622516187809662 -12.283294848800235
A 4.5073282002556256 -11.354937895043689 -12.879357335225528
A 2.2514720210758199 -6.8120180020418157 -14.714336353870022
A 4.3407873152540057 -10.529115299109728 12.833033588327551
A 7.6514874239683222 -5.7876502041127269 -14.19143680635562
A 13.079731083616727 -9.7737121562957068 11.734992869957765
A 7.3173114087151356 -7.620691701827945 11.864910121259893
A 7.4602189892054076 -7.9735599381342119 -14.189090457195006
A 5.8893543492064113 -8.3209323084018578 -13.552000349563102
A -15.037320069323865 -7.7602115752044707 -12.5837550427627
A 11.754095028289358 -5.5829521869661267 12.513414309159705
A 8.0491106549786462 -4.4784916429286907 -14.69871801808209
A 8.9447983867962915 -7.0284623518655884 -14.825704749571109
A 7.8077942189704865 -13.739955505033185 11.103013698854893
A 8.8519847346199807 -9.7741684357420837 13.825410407261888
A 5.3678257671250806 -6.3964921431750801 14.680100058363537
A 8.2434849428922305 -7.7585660056144317 -14.926043525957068
A -14.274537676560659 -6.9987869516694543 12.051940051669982
A 7.237739513093536 -3.6662159413495803 -13.220190694813606
A 13.407568618066824 -0.70748590420085722 -13.833389024659851
A 14.977912134733502 -8.4337018302483706 -9.1279243415546549
A 12.076174850846263 -7.6730228817882402 14.363560486720104
A -13.521763364136428 -7.7811591681753214 -13.774939928896433
A 14.340282766336983 -0.076604536353621369 -8.9670732015901109
A -10.227186596407677 -7.2685379298270876 -14.64359568114415
A 13.78493003891669 -4.2045971660633423 -12.330691841452296
A -12.080669246989171 -3.1469791084692296 -13.976230603249636
A 14.792903219860227 -1.892963413298743 -12.455326751620538
A 14.112375514492825 -1.7007931214678944 -11.584860368028503
A -13.570364485683731 -8.0788459132393733 13.928910442702492
A 11.006244211482519 -8.5398311932893147 -14.753901121047964
A 14.926879971828569 -5.4224443084400642 14.949154998136382
A -14.56463230804103 -8.5415140749983092 -13.363638135469239
A -8.9349411355871613 -2.5589993661750419 14.415253767591667
A -11.258852469817448 -6.7209466460744895 -11.346703625332344
A -13.252431748971636 -6.9877863438774135 -13.141324099305663
A -7.9814587225312215 -8.7856995343788213 -14.131550527904803
A -7.0447216078907831 -10.918008798309355 -14.733100329241806
A -5.9203173904579227 -9.821272888099676 13.896697708717834
A -5.8482356528762756 1.336900550832242 -12.497472238879789
A -7.2049354307409885 -5.4530295137555811 -9.4329774499082646
A -8.8254547460956605 -6.1456176938957094 14.812977533431987
A -10.51209592788212 -12.972056507557955 -14.143521159539766
A -6.3833709564811896 -7.4024968118720746 7.6761454893387366
A -4.8240996509308873 -11.568233493328867 -10.028307741222157
A -5.7360481700230173 -5.7964279482289633 12.258361476078784
A -8.9988105581535489 -10.409079876239735 11.668477581236639
A -8.7146227125584517 -9.6418807020458281 -14.312747847944387
A -8.8789020797809268 -7.5556200768011408 -13.135846858266529
A -5.1893133649921612 -2.7245895183739282 -6.2020086693557808
A -4.7351835740145169 1.1656846501775864 -14.093894294191399
A -5.3184813741533992 -11.446261862515213 -12.518648901990252
A -12.138575148948203 -5.169646705377847 -12.819991297289107
A -5.2024944153093537 -9.2959247111347434 -8.7112333177721695
A -2.2988419639437363 -0.77325465674101646 14.434156106026542
A -0.75434547391362783 2.2002938845926283 13.290557802985518
A -4.5553098057349564 -7.7518311118038081 -7.2587620622817468
A 0.59061747401440035 -7.1253562306101097 -10.093340484390142
A -2.2166341760810266 0.93757830331207781 4.4684588331422717
A -1.6993209332548165 -6.9685472550073371 14.203712022139392
A 2.4680558222725719 -8.2638153634978924 -8.4618247172490477
A -3.4948774296301757 -3.3959326941541716 -11.563083093059969
A -0.98234915144264479 -6.315227432880973 -13.23535633083749
A 5.2699136006758005 -4.6399385121236403 14.529068009685769
A -0.59578548284692878 -11.861272988443893 -11.471642690088455
A 2.4531173985457304 -3.5618559117638151 -14.039794074401229
A 5.3605883819848001 -14.5821505435182 -12.641578066684659
A 2.7360685336239379 -6.9575446863283172 -12.559993368854386
A 5.8804460376076246 -0.96822078221138885 -13.928995547691928
A 3.5014947759899213 -3.205551074340693 14.398022715944681
A 0.19246405688717608 -9.7201216429557622 -14.62414184998376
A 5.9437226493967961 -5.0254789971395946 -13.43601853377492
A 3.7939200056119806 -9.6532635986261734 9.4687427188750242
A 11.019519030728343 -7.2781694856273553 13.835827066545185
A 5.7939775909047819 -5.525464503387111 13.754953921809129
A 4.6869486445508679 -2.6703886929243228 -11.151473850804118
A 11.143332112798976 -9.4244595581628445 12.295475235053949
A 6.1717334013409708 -1.1921203899803368 8.1982395977973823
A 13.373233957910303 -3.6050183256758186 12.658500418869984
A 10.010710435032752 -4.9051543850234678 13.601732839189374
A 13.09227543906799 -4.1302947396983196 -9.9309469348188557
A 3.1009047191288048 -6.7756951671866616 11.000389460232061
A 4.6301174819261268 -8.8940374818084322 11.602909349057667
A 5.5616665879531491 -9.0508018206306744 -14.841007067956483
A 13.170994608628682 -1.2119302127655533 -8.5135041858264806
A 10.680473640144816 -7.5816496484928733 -14.583514965696727
A 7.5743428979601024 -1.1934505095254033 -14.138951065015419
A 13.532869564792819 -6.5809271427436773 14.063146435906429
A 13.626406160608983 -4.8295594513387172 14.038485154205354
A 5.464911872149167 -2.6612410428010067 14.882041818025138
A -11.125007508437164 -5.9898516052736488 -13.506092954282352
A 6.4217574069219845 -2.1290376927676502 14.472124320576508
A 5.604842841324996 -10.184345436516464 13.409087464397247
A 11.653996870073289 -6.4506049919941502 13.860084054695722
A -14.838920501870295 -14.246299555292296 -13.423736631056219
A -13.703638907456893 -6.6416939933793735 12.862775639959716
A 14.85652010922089 -4.443662204541674 -10.678706443789322
A -13.573377130150421 0.58663373728966672 10.528940598304168
A -11.524108792952763 -2.1064648970203468 -10.296283176845968
A -10.910322599758446 -1.1968487498907707 -5.7876935356734744
A 13.08666977605586 -2.2133524978015382 -8.2003818074112438
A -11.862645743119886 -1.3858255100069832 13.883979112471707
A -14.658313346144563 -7.180693361674293 -10.613681697489382
A -8.9470714708430634 -2.3528860671772716 -11.240796730711542
A -9.2788490469781379 -10.891335791438708 -12.450119686625243
A -13.599026858067104 3.7660250530016985 -11.450934961691821
A -9.3290687585562306 2.1737970866041105 -14.873549587624858
A -10.514030346002732 -8.9007357362304376 12.836515388946214
A -10.316775216216342 -4.5635044412902284 -13.879378920513425
A -10.377683870115678 -7.1814171737446824 13.451838699233219
A -13.401325730816732 -0.99135236994638698 -13.239247932129809
A -7.7022073849646375 -11.535187607143948 -10.928287198878277
A -7.3856342840407896 -13.152561508759112 -14.707226890021483
A -7.8311606718813378 -4.8207227761612614 -14.617074272068677
A -6.8061803846994273 0.17711913330414344 11.735949973542482
A -6.3028005888951055 -2.1674963767592077 13.387180539619234
A -7.6147588485207027 -5.1669716627317577 -11.401938959593545
A -4.1825276814884553 -8.8377673365872429 11.648200296673314
A -6.1392647669434224 -0.78677107856788042 14.454512105544117
A -11.643715599735229 -2.8348485099483747 -13.123381725076179
A -8.9812839082501021 -3.0947965100972277 13.568829398259675
A -1.7634999143765804 -1.6051662116302441 13.226721200830342
A -7.586717737524074 -3.4272861429201713 13.168301438065459
A -4.3110264680414065 -4.3467054820120472 13.75748164075514
A -1.8465549014434433 -12.048936518448526 -13.463141591395695
A -9.4801815674682217 -2.4325540072166794 12.886584514066595
A -3.4397665023122483 3.2273018920117091 13.65971868681385
A -4.3382586659507405 -0.017749876350776017 -14.39511604561466
A -8.8565499926932674 -6.8362870880846485 -11.961131049746824
A -2.0801560646587767 -7.0428645219055808 -14.922610438377879
A 3.3372442012941659 -9.2439458244501882 -10.272368813017167
A 2.6167772255320254 1.5797447315158075 14.247428270523683
A -0.66967563500467486 -3.5087592419356501 -11.457468621330134
A -1.855119358064518 -0.89298628029561866 -13.216425673688365
A -2.9138990470560082 -0.95193237218414728 -13.750040947727593
A 4.9067394235460462 -3.4364848870894269 -13.916360036454325
A 3.6534184836637866 -2.64270550799738 -9.5219246149039201
A 1.5834882162677379 -8.8724881989982016 11.969680802999502
A -0.47434827648889683 -3.7219507910391814 -14.471964271652261
A 1.8085229942519727 -0.72884983430100481 -11.758132779996934
A 0.42033497289461103 -2.803807204537442 11.65440728280514
A 1.6690725094362113 -8.6423852264283436 -7.7138782390132459
A 5.8457381054851867 -0.76314596125391643 -9.6914279150298679
A 8.0294967303314682 -8.7264828778689054 -15.069900842954421
A 0.9691738488792897 -5.5474855733292507 13.916047968167652
A 1.5992287756220342 -3.0218456787903127 11.279912547971133
A 6.4971834790863534 -5.0051194870762314 14.803460422309305
A 1.1997723447178914 -0.89872078670802036 10.046969517245053
A 6.6842054580745005 -6.4952173887924918 -14.305411118289449
A 3.7186803105224562 -0.93350743835207717 14.33648078523313
A 11.868380223390815 -7.6344456081791385 -13.21643879476351
A 7.3716279710782171 -3.5097115406764758 12.824430200692166
A 11.717649041072457 -6.1112324454843048 -11.314220581994185
A 5.9601393217382839 2.8578758150436623 12.650395469340058