ITEM: TIMESTEP
9
ITEM: NUMBER OF ATOMS
23328
ITEM: BOX BOUNDS pp pp pp
-15.08190489966774 15.08190489966774
-15.08190489966774 15.08190489966774
-15.08190489966774 15.08190489966774
ITEM: ATOMS type x y z
A 11.801878622173954 12.893046347594019 -11.908285567908461
A -11.084965347966532 14.796778242915739 13.238550471482775
A 10.750717831367115 -13.221540588944057 14.623968141403184
A -13.968350546420087 11.835025512654514 10.762393250142134
A -13.970673575897219 -12.857216505256023 10.896640188300843
A 13.858034754141677 -13.405003505559382 13.268955491547441
A 15.053838806560632 -14.064666791873481 13.084002222712218
A 14.197576428841071 14.582511608926435 13.5809067099124
A -14.236279594769066 -10.497851531908131 -9.0004378263000255
A -14.476608021798633 -11.18919467394532 14.277461722917828
A -12.222196214513161 -12.689983186698845 -10.919404072723905
A -8.4032710733604148 13.233420466378591 14.300156866961778
A -7.7118483243864695 -8.4483377745928383 14.545456254130595
A -8.4962649252346054 12.806594224050912 -9.8381525397774965
A -12.472691239807205 -9.890805373054036 -12.213185041982644
A -6.6337970961481467 -14.265271279830712 -10.660892398684524
A -8.3824909449169223 -14.676044778270017 10.267229375550295
A -10.553912539675418 -11.565594028105982 -11.378639735801034
A -13.269170986653551 13.732572038454236 -9.4360717004431383
A 11.9913063202395 12.893432991812322 -13.890106268717966
A -5.1615438945536161 12.894522704239067 13.701876274489278
A -12.068912255974761 -11.326260021618376 12.649486838345826
A -11.547474900596148 -12.649791232634932 -14.253051780326222
A -4.0959530527613595 14.51412904512247 13.069511057578104
A -6.9482599733984394 -13.754320844887992 -14.876689790933371
A -4.002821114703405 -10.446174910716261 -9.8294175561900801
A 0.68634417483287025 -14.393647401660685 14.116444872969238
A -3.6514006354071382 12.804644721591764 -15.025385713113501
A -0.45185157566666667 -14.926005699344554 12.645503129381737
A 0.36261185915185168 -10.984436612647441 -14.874958644621881
A -4.5148460830544019 12.227069170980927 -14.520263358948991
A 0.01930595675784004 10.948404583905804 -11.268348752155203
A -0.44345845322044947 8.8484455183676864 11.722858182538014
A -4.4474754015453328 -14.8719230814442 12.429989072600826
A -0.23497396274830146 9.0893206353037108 -12.120433848906751
A -1.0791572349796474 14.234120083686495 -14.177073055393784
A 2.0490410764388898 -9.158033585088031 7.8703418376496632
A 3.2775762544376312 12.209330318537571 13.119583877818261
A -5.7423274554415471 -12.804313353274345 -12.734031090712362
A 4.9100461325938989 12.466116115241341 -13.030964800862405
A 1.6437801970530412 13.483010344173053 -9.5430392824463528
A 2.9602286922963348 14.600756981152365 -11.011877546765852
A 5.9232432730629352 -12.973340419111537 -4.3654493991685088
A -1.0305303330043019 12.675530075343868 -13.358161565626364
A 7.6278957566606911 9.5616708126644987 -11.501010166882327
A 4.9914102172258845 -10.418939589744209 12.097894528678671
A -2.6882654871441209 -11.105576807399268 -10.427940115559066
A 1.8288813760905707 13.202057104258653 13.382736481794897
A 7.4109699413153933 11.451661476459076 -12.159626020616612
A 5.4292544736401771 14.359111874987008 -14.441197624431654
A 8.2481473796203542 -11.838701162270389 12.853457289055175
A 8.2633346271488186 14.067080843026776 -14.591480461928922
A 3.8369648895926867 -12.861729850542465 -11.888147013878024
A 10.391507353368924 -11.48458215044932 -11.17880349685279
A 7.8196410975808126 -12.619298763990873 -14.829872016117944
A 7.5301346382296259 -10.582389098291966 9.4945010696977867
A -14.500972945889137 14.959904787711336 9.1109655238996901
A 5.8783922497140013 -14.090268776132705 14.909728120652384
A 9.651472248901797 10.613563074369733 -13.612254795824605
A 7.1126198604273663 13.490744613281814 -11.976653488513296
A 11.369467869640083 -5.4929020581435974 13.936545525315221
A -13.177275208591801 -14.114385422354234 12.403624514745044
A 10.959162498722593 -14.289314028180835 -12.666496834740656
A 5.7614425650411283 -7.5259811502587004 -14.050667159739792
A 12.686393868639755 -11.128019796576107 -13.191462136021196
A 13.656762782828935 10.188866449492577 13.801698178623605
A -13.767722457871558 -4.0338509909799578 14.227159197280161
A 6.8254634215386387 -12.792485714404705 -9.2283720476852498
A -14.94157007569483 12.536885052861118 14.844746002673396
A 9.4039130252193743 11.541411183718528 -11.363281848903005
A 12.596488805283501 -9.2324890383524725 14.046559949557436
A 7.5639852689414804 -12.153915255488615 -13.45320121421099
A 12.549255217080088 14.968129953085198 -12.536674311167516
A -13.060685273218798 -12.104804838730807 11.005797678365221
A 14.915245234950321 -11.272574576161176 -13.40523958076694
A 13.761407023297542 -13.921356584317934 -14.880630717198523
A 13.144440029291367 -4.2894204863046195 -9.4037567778234532
A 9.353209796481682 12.041934587893618 -13.99440231862588
A -11.527545118433236 -12.808060617265502 -10.124861984743781
A 14.921621573619948 14.150261220730107 -12.11640842398354
A -8.8975799568080127 10.996268252980148 13.331975964496783
A -4.4945024022152422 -6.9169704015797011 -11.084625969700626
A 13.884400551892378 -11.212020418851676 -12.90055216377913
A -9.3893426564701379 -12.906357388703796 10.446941077139202
A -8.3427507382468935 -15.076037663546719 -12.340328708767094
A -11.227168469957858 -9.0948768200310468 -13.976233846077552
A -8.725613138635735 -8.3251982632606456 -11.596203545151695
A -6.0988015703083187 -13.697136542031259 11.513340415635042
A -8.3205165732183364 -8.6206915674085423 -12.928565194515842
A -10.70350639406138 -14.307930736215395 -10.697950281894096
A -1.5135271834624597 -11.538566614446022 -6.5126821925655474
A -9.3105621990816569 13.213282368933132 -2.935690207071576
A -8.957403121555604 -12.080332075076644 10.871843435518683
A -10.506159830278179 11.87136238361164 12.690665834744518
A -14.183427225145529 14.318994294254374 -13.957806334204076
A -3.0346966362778458 -13.172151796564949 -13.085280492713546
A -1.4927205048680472 -10.628584971956997 9.0979888937026701
A -6.9617295746872276 12.914767325834241 -10.80053247393155
A -1.3391626344772924 -12.218010283385956 -11.581174508591959
A -6.705958875563141 14.085671586448715 13.723911323605734
A -8.1883080358014269 -12.800398776190415 14.025020598175789
A -2.5580394670142397 -14.492837766713548 13.246979769838161
A -1.402884211704692 -10.972431757492156 -14.016690250316191
A -2.4876946422803634 13.200049336363691 -12.643055314382975
A -3.3686601851647864 14.880722146610887 -14.744941488142105
A 4.0510970591223154 -8.5713138743751998 -11.249821605554216
A 2.5851046718111546 -12.261213154967232 -13.88255138631134
A -1.8440005238238384 -5.9185596150854654 -14.762162631450016
A -6.5711103755612079 -10.955711030106261 9.3449591576507203
A -3.641939798046923 12.113396538665338 12.269271459952689
A -0.016009328642716085 14.609223631863477 -14.49362018248409
A 2.2395481518257911 10.86810692235256 -7.9207167900634374
A 1.111360981064992 11.443733458817794 8.6207578321677278
A 0.98546416682612481 -13.952801711252999 -13.360304871351063
A 1.7344378328663363 -12.960471723432722 13.775941613224173
A 5.7936819321595276 14.412594750595822 -7.2047204127407065
A 3.1592353450622221 -13.587641048471964 -14.746414695046603
A 1.8881362327698312 -11.978820991858758 -11.768544971482102
A 0.33947224596495806 -9.880772488650349 13.744080313794305
A 2.4993257791985855 -10.173335332362441 -14.405851672770293
A 9.0822086965362629 -9.6305280154233266 10.978758850753138
A 1.476111311309851 -4.3227856454364746 -6.7336405756661133
A -1.283494412715966 -10.001961791867988 12.056337337455052
A 4.0185452352559823 15.078312873017936 12.663059953355368
A 8.6986127250657717 14.069443400293835 -7.6514376458862507
A 11.066891839138842 -14.134228742172853 -14.522254771769379
A 6.5092138613429036 -13.530336867984328 -14.320909035222618
A 8.8005186380470626 -7.2711670965116513 -11.591724377658684
A 8.3846896867218845 -10.069578456141372 -11.033987610147086
A -14.754411401180473 -9.0632792493591836 -13.942491456750076
A 3.6382714464605974 12.426392131252259 11.90329198229402
A 7.3111061831552799 -13.599427864837754 14.141972567582588
A 12.685490584834124 13.103264270205003 13.401990743278953
A 14.47123787891389 -7.5008976094906403 -12.64131406861337
A 14.355327796252105 13.563806564095263 11.359835699191489
A 5.196031885275632 -11.574645754046507 -14.787585908460956
A 13.164452841076528 -14.210311084739208 14.112516963061625
A 13.131815979165628 14.01982982291185 13.545025585111691
A 12.621327438227112 -8.4366865309991663 -11.609076945554076
A 11.479734698957671 -8.7203628837233058 -12.311574994263955
A 14.691324114853348 12.613665734917261 9.4631106213825635
A 14.838622000463499 -11.578134888455532 -9.2611836878447047
A 12.307025622776981 -13.705018211829696 -10.103517178682011
A -11.51863445318928 -11.691162410887815 -13.808350835319684
A 12.771119919872154 14.835571440829003 11.623902820396001
A -12.512256379663505 -9.5293218760117 -10.707676973657112
A 11.081665569482039 -6.4061315208969418 -8.8132743618315157
A -12.60170954351568 -12.258589822838694 12.592414532340641
A 13.1318145541203 -9.321947144748858 -12.213763022157735
A -10.480773188712137 -8.350483039228644 -12.840638535087395
A -14.817926232667268 -10.723452718895565 13.228442709098619
A -4.9170225508417573 -11.05532762217069 -12.361560751541903
A 14.867463981735751 -6.463773596742314 14.845475576462322
A -8.6136720902842097 -7.8682463254599764 -9.3249902790145018
A -10.723382255796508 -8.0053527720831497 14.281415207665637
A -8.7045295033271479 -8.3282135674650402 -6.2446840396390391
A -5.4303633595366279 15.067833577989312 14.91747126984966
A -6.0174022955464155 -13.499200497403583 -14.522248369679373
A -11.172099081990856 -9.8566533698072156 -15.038777057412473
A -8.914545579791298 -7.6933968837658204 -13.280366268394783
A -8.5268144630986651 -13.471422545661351 -12.519227759109752
A -10.565636143006492 -10.621965899911993 -13.006175005217473
A -7.6614157294195593 -10.135901449705237 -9.5602595893776421
A -4.5903249182752175 -14.769908961578421 13.706099241072664
A -5.7558948333571838 -12.596873494276071 -8.5535138736529852
A -0.9854808518141791 -13.316044278289892 -9.9117474412939544
A -7.7270635288679088 -3.2846981431233835 -11.134081050074359
A -4.4299417611215688 -11.976013109628138 -14.039250100388346
A -2.7212032505545398 -9.6752261827329136 13.037429146897797
A -5.7793519127894131 -14.457156892620921 -11.279387905388786
A -5.7948436327508848 -8.5366062581035873 -13.543017740257685
A -2.9647746422191386 -14.099857247073979 -11.882020351980673
A 3.0084635422369304 -10.088198799633531 -8.4102127885793827
A -2.0195544778362775 -12.642721313354865 -6.99527983719247
A -10.627736772632739 -14.121260128755438 -11.95755499048091
A -1.7738847597423393 -11.143925380595126 10.298860349129956
A 2.3868372844613641 -11.585908534432356 -12.810225893292863
A -2.8201952177864773 -10.429074332685721 -11.213992007744915
A -5.740754655396981 -12.644796713150956 14.634939708723804
A -3.5346640485154097 13.455198335995901 -9.260750527546401
A 0.55264875990784357 12.098506321253909 12.265895454026392
A -0.60789410293928625 -8.7643379239543417 -12.695021358650898
A 3.9114974435120562 -8.3684559945846875 9.1902638910783416
A 2.3561984217255443 14.065038585532752 11.009407490595425
A 1.3780100511589786 -11.191247355395308 6.5641356296979829
A 4.2411875340013223 -11.133830058355878 -13.471651407453507
A -2.970769994933868 -9.9305617690358936 14.108377768378862
A -3.1183746159596319 -10.433628897736698 -7.4080788197518723
A 3.4785322865576438 -11.335347726963489 -10.509791243035975
A 3.9439958219705087 -9.548454290314405 -13.382390728571393
A 2.7492425390111745 14.84499844437201 -13.448557000569014
A 6.0745281340177844 -11.277012116372795 -12.480847192123306
A 3.2159262283812731 -10.199405748177835 -12.230746159581237
A 5.1980261911032573 -9.9113207078449435 14.090856335606526
A 3.6316464160648465 -11.094248685815819 -11.792449582309718
A 6.5723019285588204 -9.6516968512156875 -13.870530887459271
A 4.9300205121985048 -9.9266493907354612 -11.082280941102029
A 3.9828896342801219 -9.4547128086019079 -8.6759276533994072
A 6.219031113110657 -5.0915120488886476 -14.166792522443815
A 13.450946774122432 -10.952433596400244 -14.800259437288688
A 4.2431771952099373 -8.64242489326476 14.32272595182495
A 5.1254601302091594 -9.7169259052723245 -12.349409714136941
A 9.5211183254172802 -7.2302665255428513 12.796689652876996
A 7.2557248131515726 -7.4070006068327814 14.099926110383018
A 3.3969357856097444 -9.246999592551747 14.893584287536889
A 12.591501195541312 -14.559937423065954 10.809556981914444
A 9.1472795311619173 -11.259718260568885 -15.036256621263473
A 11.056887579930718 -14.722040483126857 -13.704777078152549
A 13.912751410459748 -9.716535117162346 7.6727537795832976
A 14.458804776747003 -13.311635483112447 -7.8104352477224976
A 12.966321319577219 -14.363059683050583 -11.570529465391665
A -13.563987185132557 -8.9675636830128855 12.36598689881802
A -14.250940458395197 -10.724534954650908 -12.972508177009209
A -14.900711406887618 -7.8703156574161488 -14.879542344502671
A 14.951518304311842 -13.815224976024735 -11.447283375429871
A 12.569055985523615 -13.715335234311153 -15.064293853294117
A 13.502533556876983 -10.318329701603867 11.627706890216768
A 13.272537413229296 -8.2441309658348665 11.570208175866986
A 12.561229048946913 -2.7266833225069727 11.801955379931469
A 8.0112614848228159 -9.9144823130719519 -9.0178159756767347
A -14.642475076791083 -11.6125306181992 -12.583814371251179
A -7.0152200988228879 -11.100736857667624 -9.4918221732870602
A -11.589003995189554 -11.257134006783254 -12.386307165712003
A 9.968160290588445 -12.262420765856351 12.953361426926726
A -13.324494098947172 -12.49704272968405 -12.792127774565971
A -8.4075309968594425 -14.171534951674476 -8.8430571223215377
A -10.8796429533239 -8.5832612039717819 13.370335096466228
A -12.282752018266999 -10.596576187070983 -10.599155328532289
A -8.926796747724941 -10.865152257395554 14.935285375312676
A -7.9337756386803484 -10.049595923246752 -11.435638455723742
A -4.4393535419349472 -7.8251482792767737 -10.245149449625789
A -2.6621356007409687 14.875104465512649 -12.77595233576009
A -8.4472417286442969 -13.745340216461912 14.316517126596313
A -4.4869718806262382 -11.027194186322101 15.042337582615664
A -7.7447362589232451 -13.18472341135713 14.927748646256569
A -4.3112050019239714 -14.095311098618366 -10.315714611166463
A -1.8060139904550712 -13.20009004209529 -13.541066060175192
A 0.12708307731061125 14.931453400376499 -9.5139149427167542
A 0.16163996156660995 -13.252122378973143 -9.7840348062388358
A -9.1240591590114857 -9.8816085648717706 14.986145979681183
A -2.3455765109402691 -10.371701865315284 -13.914915301305751
A -3.2148703632163458 -10.776631251531901 -13.548069441668058
A -3.3456991150787578 -11.643885837199084 -9.602762250617543
A 3.1521949358994852 -7.3868498915160439 8.3623067498029648
A -1.5233796473090131 -11.691519668381403 12.283241232706976
A -0.90439724211906436 -12.273690398112791 -9.2594964184282809
A -0.39904098508581398 -3.2351542116854195 -9.590665193448384
A 3.6835249027963819 -12.892794401091422 -13.830458052419427
A -6.3286395936833397 -13.498190532818741 14.503133911038077
A 0.24871321884174347 -7.6469719723416585 -13.84711384539885
A -3.0586029573310878 -10.844888182852847 13.592912085750621
A -0.59927703180389402 -3.4427526424555541 12.518797407724389
A -1.8673269973209394 -9.6332031390354711 10.826636894937996
A 1.3813383513686419 -9.8643291215523554 10.21672597742446
A -2.5848327632586292 -0.77151859166130254 -14.163264899166089
A 2.8403921583680023 -12.988071620472414 -10.057512606391397
A 1.9231486560067603 -4.6540257129352538 -11.950805109890208
A 6.7912256480483091 -7.0338752053628433 -13.543832507611368
A 3.6739907051046927 -6.0666144481019657 -7.3708315898835872
A 2.9982482959859325 -10.349943848746541 14.906785711533912
A -0.52845208189222104 -4.7892426671829913 12.749140765437506
A -2.7162730461801816 -7.8280896520595178 -10.629312089415452
A 2.0427844733926301 -7.9829647589764203 8.0088422886896762
A 3.3924851224235861 -10.602518712935211 -13.330331778752194
A 3.5952087087209361 -7.6225973560553815 -10.669045291141744
A -14.204219990897821 -5.8216920025976115 12.547092368237468
A 4.9905438876390296 -5.8935849462964915 12.651989041512278
A 8.5526790339475696 -9.3496376145319999 -14.844280629452324
A 9.9891722802698641 -14.695331780912857 -13.979106834167951
A 10.954801377705129 -5.2172608974335981 -10.133961560815276
A 10.252774400988224 -11.741285224221304 -14.847133812346005
A 10.150918392030954 -11.354933363655052 10.636095891100132
A 14.063347218530547 -8.3723612778682579 10.8164226737972
A 10.781779687298798 -11.077414490857642 -13.207452727117721
A 12.070450042849213 -2.3655689394751303 -8.1710994177770058
A 13.361117868480161 -10.479292104383561 -13.711562198463056
A -11.174472216609354 -6.9918145514066774 10.295969900651174
A 13.429162586133936 -9.6990139550688035 13.634726328151803
A 12.817781568400248 -8.872249742160168 -14.767690964488771
A 12.0262257437714 -9.4103039236999617 -11.592490275457804
A -14.129451979964241 -3.2100067990481795 11.228739264549938
A 6.054578921214123 -12.133877643765931 11.285989154466369
A 12.096009510455763 -9.2624958506720141 -10.225665237068281
A 13.905770650201681 14.500967611288768 7.607819600226926
A -14.745126372529304 -10.501780594615916 11.657348010873342
A -13.079905340278751 -4.3526725624072338 -12.549321110067636
A 9.5018536705185603 -9.6112660526765819 -13.33152232680794
A -9.7071051379986777 -7.261920771122254 14.157378818653397
A -14.428396588389333 0.0071908680233983271 -11.096189721904535
A -14.541035699279753 -2.7152121679350003 -14.266049998038389
A 12.303339891248566 -8.1232521059659817 -10.671709412197963
A -13.498257279571062 -4.0212917430050412 13.065512197570953
A -11.68552275699035 -7.9661751982403226 13.628709645934471
A -9.3754759990837364 -8.9827480318912514 -14.786171019629853
A -9.4428705150911956 -4.6017742351745872 -14.809006296734346
A -15.043220718880578 -7.9539253546741335 -13.89042905083967
A -12.695430637766346 -9.570409748129606 -13.165830497247295
A -11.319576761251296 -2.9255749012060117 -13.926323336334434
A -11.438755705463835 -12.666157918562316 -13.254783065639142
A -13.126857578898395 -7.666744603274064 -5.8146234805054222
A -11.49869352183719 -11.951554053039585 15.055037974435647
A -8.995054832355283 -8.1077766041580563 -7.6947405267461262
A -5.0388456613480566 -9.5082092270258975 -12.376946711183431
A -4.6939602087663923 -13.053957448052186 -14.571747511922297
A -11.578547808742403 -10.327004409380905 -13.009245621327983
A -3.1758375598535835 -6.0327183947776657 -13.806087765107215
A -3.567705622075747 -13.726761971514845 -9.4452965061878835
A -6.9282874012207873 -4.0645915224785876 -10.941877333921022
A -7.4898470107059163 -8.5704970469354738 -14.561274409909737
A -7.5671465789170851 -10.529186679016762 -14.410398215257841
A -6.0645497517959592 -7.9468238132592717 -14.874853848619155
A -8.8788142826515575 -8.530379194228713 13.131310660512016
A -3.9444544221828792 -5.9875876470854399 -9.570973538695414
A -3.6853319806517959 -6.800075588334729 -7.7304160713348322
A -3.9725390027839009 13.26488506092053 -8.1395714415143718
A -5.882069184311721 -8.1069535314413415 -10.827451588107092
A -2.4611494124476643 -8.019407412693786 -12.373397458754139
A -1.4197689191763139 -9.876485190343363 -14.220518626451813
A 6.7536179961552776 -8.0315622704762983 -14.117175790008902
A 1.2920624904286979 -4.7717853160225721 -11.034359077650899
A -1.7976626635139203 -5.1738574551094079 14.155669073993975
A 4.0169138322650007 -7.5726488497781457 -11.768761754968114
A -5.4154421116387708 -6.0424459488952582 -12.448800812811895
A -2.7514040390351719 -9.0005896483678356 14.571901813378199
A 1.2151049734111925 -7.5228824390701083 14.107667030822718
A -1.5145983206862668 -1.5287788682775045 14.6461419305775
A 2.5917146024983668 -8.8106287894365334 -11.918640732721277
A 2.7334484102710719 -2.1244743736518141 -11.741162499231702
A 7.1288409908976691 -9.8036002551118564 -14.989199376459792
A -0.20588968297705115 15.022141139125017 -12.258043594044306
A 2.5545516705539968 -11.186040968024258 -11.894475167631926
A 0.078421653926838961 -4.7407310532449616 -13.47781770081815
A 0.94805054027195057 -12.49316449301149 10.477314746060069
A 0.30446577199782088 -3.3851749742494275 -11.998928245088115
A 2.4636052087615874 -8.6594198249144227 12.665950801991535
A -0.35395647555479137 -10.737642881766234 -12.968085775942185
A 4.7939055598840241 -12.11151464490726 -13.391601435562853
A 2.9478329677464377 -5.9452440389142227 14.728576647728705
A 4.8304430677514354 -9.0968409118567326 10.801718293254046
A 7.232782156544693 -4.3607023165169707 -12.633007550311875
A 13.459171376365076 -11.257741814140529 10.305854330001328
A 6.55477397078021 -6.4654211847132279 12.201438780633881
A 8.2272316304403041 -7.1412947651077685 14.445150855120509
A 5.1119326714050359 -8.8037093068304788 14.830510278788845
A 14.87536517973292 -8.418215743951567 -12.470459442728911
A 10.945694225217794 -4.1352848106504085 11.974820966169439
A 8.0402568351034613 -4.5544555903259178 -14.686637822915804
A 9.2056629262205458 -7.4246324777384931 14.149582074808485
A 7.2928141345388937 -14.716114009408109 11.413783274185375
A 10.519415730616084 -10.824746871090428 -14.506529411559217
A 5.3305185215063702 -8.0411409425286244 13.098029022035956
A 7.5178347758158939 -6.7986605875725798 -15.070209625266994
A -13.556240524698651 -5.9382310312987929 11.361744875538934
A 7.1498100286017428 -3.8957733329020345 -15.041256069336727
A 12.852863739809896 -0.49178180477564343 -14.28298959406006
A -14.794319832761737 -8.6446994337525247 -7.9296638693399819
A 11.497449675892357 -7.4855509183705875 -14.138569091462262
A -14.037025331505697 -8.0099112403042785 -13.819650236096964
A 14.218092834998222 0.040296914400560851 -10.248814668782522
A -11.038462186005532 -6.8749346180679476 -12.727466703985856
A 13.330883447436213 -3.7551676168695534 -12.028680192183606
A -12.003381167393087 -1.2699114212603091 14.54160683950029
A 14.890429300227334 -2.5672011010280893 -11.814277257447801
A 13.289002465179543 -1.476892177660077 -12.457855040169937
A -12.148431661360679 -9.759874367057888 13.969526191282513
A 10.618431051406297 -8.0425830743029838 -14.072927230830739
A 14.138760683793988 -5.9707571511323216 14.308445819471084
A -12.545241532866513 -7.8876478715349014 -14.08459574337426
A -6.9769731720274439 -1.8155296380378123 14.529248940517528
A -12.675119162038646 -5.6781057827017918 -11.218717319208254
A -13.324236383017384 -8.7821029280795528 -13.281488781701677
A -10.328650877543788 -6.7379818768244846 -14.141626681845922
A -7.1881524552904139 -10.706011288996626 -12.399419432177275
A -6.0500322297528779 -9.5960090851201407 -15.070798703262659
A -5.078669803814587 0.97303758211398728 -11.440838286355422
A -7.9589647718646264 -5.3619289970612281 -9.5349299877925855
A -8.47104998423338 -5.7651176051858526 14.122499604240026
A -9.4748350335849931 -13.691298900417179 -12.957894774177852
A -8.0868284674674555 -6.1379392593277791 8.4865020972191765
A -5.6100565865665653 -11.792538489791855 -10.286282796889138
A -7.3888822070689386 -5.1514249179931664 13.004007916726108
A -7.6735033633395133 -10.369858927239807 10.698848428840773
A -9.3596630316101752 -9.8313374454244542 -12.942076147390116
A -10.21099851433992 -8.1814756731470801 -13.937656061614804
A -6.8710037308924434 -1.5535175771020571 -7.1543797412784471
A -5.6378078524411182 -0.73890319223010525 -12.262295439052469
A -5.6312488486712748 -10.147002276565271 -11.860106514888814
A -12.80373554216702 -5.358658062415115 -12.598895634335067
A -3.8693648733719535 -8.699929266874264 -9.2311052258877062
A -2.2933065865887867 -1.8622869504647457 -14.580190839866157
A -2.5938877131151323 2.9954391396959239 12.603586026596663
A -5.828999228787513 -8.6273323888903235 -6.1353312056268141
A 0.97395495079371408 -8.9314039883781469 -9.1143130122435547
A -3.6422928413039846 0.32559032548651129 2.8320781447105006
A -0.46860599259583929 -7.5891157870313419 13.312681384746712
A 2.4659172245551253 -7.8378245136878029 -6.9200682903117787
A -3.5897993243362154 -2.5996808823214921 -12.61269092131181
A -1.5773224597681332 -8.5976947654229949 -12.494501183219514
A 4.5264052738057217 -6.0158981775753011 14.530124602388897
A -0.71651935244504239 -12.966077901395829 -13.790460692443819
A 0.46811350269215679 -3.7822177501210095 -13.084284004773314
A 4.7752706387372372 -13.257140827754283 -13.506524034994298
A 0.67431477076730495 -5.793521514288023 -11.760127854880938
A 5.4333262769157038 1.5677026908565379 -13.699142499276885
A 3.1967286606767211 -4.3323004076641061 -14.483428792047834
A -0.02257324186328976 -9.9394056354036007 14.8029502017067
A 5.6175302482708087 -5.3620364484499525 -13.207312609427161
A 2.9254598544128716 -9.3913494045330506 8.5568835336811517
A 10.249767629302351 -8.7117926521621971 14.311596472729416
A 5.6097557262684008 -6.2332783823472946 14.363174906407734
A 4.3586756477463586 -4.0329883944151472 -10.435965287388752
A 12.40084472469173 -9.1279196370174223 12.817799309308022
A 4.7737389740487295 -1.2092737799577182 9.6826692840531159
A 13.505700171848469 -5.0572389312836066 12.003251681015954
A 8.7716518849170022 -4.9204467270165679 14.861752423745697
A 13.380964103025756 -5.8060953666009878 -8.3535009877191442
A 2.6811354039725677 -5.817733645659108 11.041490241003714
A 3.1795131007333923 -7.6019130209100663 10.968156589320978
A 5.9505031516627254 -10.118564418778242 -14.537723348975174
A 12.225881009244546 0.27103778687632213 -9.2694307071917557
A 11.044340087929289 -6.8537900365458064 -14.780510045005984
A 6.8931957482935653 -0.4619577699061127 -14.385482639135244
A -14.939649529945926 -7.2309758586839843 14.152228246821011
A -15.016487887339652 -6.2298923156732799 13.871097985135943
A 3.0577245311861097 -3.4204646680770887 14.59269627218125
A -12.064347655436411 -2.9857408135880097 14.793398455518632
A 7.9827840758532371 -1.4738838292896166 -13.313759786929484
A 6.018104875413421 -10.245450051847877 12.143663630680413
A 12.355705501895725 -5.8843511296509172 13.93826578232955
A 14.772810377582475 -14.96623621892363 -12.309677879321768
A -13.402044778494881 -7.9651903732626943 12.495264677245579
A 14.495823403984591 -3.6258379896558623 -10.463971895720377
A -13.698424384149369 2.4829739242448126 11.127876247316099
A -10.47324998967828 -4.2109272280433405 -10.516427003291698
A -11.211439286171734 -0.90853514008252279 -6.3715163107281283
A 13.048336597967584 -2.624536932253918 -9.7940316750917074
A -10.561039059480709 -0.39265503355139525 14.232790352026067
A 15.024656347148623 -6.1362419011011395 -11.475238064170451
A -7.3290728552748989 -1.7827080041845584 -9.6959542593385226
A -10.708101004405069 -9.5878466723467515 -11.48425177412598
A -13.51441610335778 3.4836735013525839 -11.436919470033791
A -8.5610446186576254 2.1302879242392407 -14.725295434068162
A -9.5074365784948753 -10.276077328995875 14.075640280215003
A -11.933094515547079 -5.3450254725933499 -13.708059569595811
A -8.7491533283684841 -6.6950507274407682 12.107850883836587
A -13.205485867098572 -1.5006929821453587 -13.067342037845455
A -9.4836997513000405 -12.315435330132532 -11.668980948014051
A -7.8964744196137557 -12.585542818522978 -14.383621791616831
A -7.9422642768794569 -4.5337907092675911 -14.728166223144221
A -7.0420070084466708 0.099296763172848329 12.227236547746259
A -5.7721972824834156 -1.1886092511898365 12.908881693508919
A -8.0437461014836735 -4.8641161495626593 -11.439513935467765
A -4.5196226353542013 -9.4922756500747809 12.180018009117777
A -6.4253174938362818 -0.13507432145550224 -14.499826710701392
A -11.147643611329551 -2.2509415150410894 -15.013768469693037
A -7.7464685007509866 -3.0159857755924881 12.038594015789579
A -0.42135217687331228 -2.9068780303730075 13.455492608065247
A -7.1274508375276033 -3.5494408576885865 13.80591402785323
A -3.9987913102984565 -3.0572959389229823 14.271255345621421
A -2.3281505740348902 -11.379039130015892 -13.713828725289503
A -9.7005489624731833 -3.0916420528590218 13.075250538064829
A -2.9248305132268375 1.2768331357093483 13.234461178702011
A -4.0775665856845009 1.3730557410673774 -12.388267314004759
A -8.1506185617833307 -7.0656245389877084 -11.479376449953516
A -1.8693476237299687 -7.5530248425740023 -14.40901725203142
A 1.3720947822029284 -9.2517889792642869 -10.469723114763516
A 1.9529151490008707 0.54835084422305935 -15.063512637096341
A -1.4244423816122704 -2.2808028049424149 -9.922542607983809
A -1.6490005919107991 -0.92552053997616746 -12.2961782459159
A -1.5192951403057351 -0.47160662005535831 -11.404619326139388
A 4.4957445693484841 -3.4535429330035878 -13.24145768290548
A 5.2707120616960497 -4.4486791648413799 -9.6942324012136165
A 2.1045553114699453 -8.3189606888239354 10.52349121771095
A -0.0359735870141141 -3.4399274706982386 14.307216239713176
A 2.3227608136612088 0.90745836232279731 -13.285541634656195
A 1.5718325661663592 -2.5340379075861579 10.96623597957897
A 1.6632574455433624 -6.0897427897575955 -7.7992656244259075
A 5.957492480542677 -0.7632078182308254 -8.4136953918682735
A 8.9013301515763033 -7.7328102104063161 -13.652144161083939
A 2.9458861877090703 -8.8402785510414539 13.548655303050255
A 0.18626199468802276 -6.2002485637112921 11.626086059373632
A 4.9456993171452268 -3.0361111337859201 14.987082751522316
A 1.3136398226924457 -1.4843453453182005 9.1706437613497851
A 9.2945450005408361 -4.6077045651183814 -14.209057895797734
A 2.9164984667414826 -2.3393435708254766 -14.881427816925955
A 13.433030557921823 -8.0179953964168575 -13.14240758845415
A 7.36885258262474 -2.818416127806973 14.894996106538233
A 11.523960227185112 -6.3635842637677387 -11.672978047366383
A 6.0538858257970034 3.0872231204939764 12.803011925275079
A 7.9903100422848761 -7.2422129336725956 -12.202457392813532