ITEM: TIMESTEP
0
ITEM: NUMBER OF ATOMS
2048
ITEM: BOX BOUNDS pp pp pp
-6.8399037867067864 6.8399037867067864
-6.8399037867067864 6.8399037867067864
-6.8399037867067864 6.8399037867067864
ITEM: ATOMS type x y z
A -6.4124098000376124 -6.4124098000376124 -6.4124098000376124
A -5.5574218266992643 -5.5574218266992643 -6.4124098000376124
A -6.4124098000376124 -5.5574218266992643 -5.5574218266992643
A -5.5574218266992643 -6.4124098000376124 -5.5574218266992643
A -4.7024338533609154 -6.4124098000376124 -6.4124098000376124
A -3.8474458800225673 -5.5574218266992643 -6.4124098000376124
A -4.7024338533609154 -5.5574218266992643 -5.5574218266992643
A -3.8474458800225673 -6.4124098000376124 -5.5574218266992643
A -2.9924579066842192 -6.4124098000376124 -6.4124098000376124
A -2.1374699333458707 -5.5574218266992643 -6.4124098000376124
A -2.9924579066842192 -5.5574218266992643 -5.5574218266992643
A -2.1374699333458707 -6.4124098000376124 -5.5574218266992643
A -1.2824819600075226 -6.4124098000376124 -6.4124098000376124
A -0.42749398666917415 -5.5574218266992643 -6.4124098000376124
A -1.2824819600075226 -5.5574218266992643 -5.5574218266992643
A -0.42749398666917415 -6.4124098000376124 -5.5574218266992643
A 0.42749398666917415 -6.4124098000376124 -6.4124098000376124
A 1.2824819600075226 -5.5574218266992643 -6.4124098000376124
A 0.42749398666917415 -5.5574218266992643 -5.5574218266992643
A 1.2824819600075226 -6.4124098000376124 -5.5574218266992643
A 2.1374699333458707 -6.4124098000376124 -6.4124098000376124
A 2.9924579066842192 -5.5574218266992643 -6.4124098000376124
A 2.1374699333458707 -5.5574218266992643 -5.5574218266992643
A 2.9924579066842192 -6.4124098000376124 -5.5574218266992643
A 3.8474458800225673 -6.4124098000376124 -6.4124098000376124
A 4.7024338533609154 -5.5574218266992643 -6.4124098000376124
A 3.8474458800225673 -5.5574218266992643 -5.5574218266992643
A 4.7024338533609154 -6.4124098000376124 -5.5574218266992643
A 5.5574218266992643 -6.4124098000376124 -6.4124098000376124
A 6.4124098000376124 -5.5574218266992643 -6.4124098000376124
A 5.5574218266992643 -5.5574218266992643 -5.5574218266992643
A 6.4124098000376124 -6.4124098000376124 -5.5574218266992643
A -6.4124098000376124 -4.7024338533609154 -6.4124098000376124
A -5.5574218266992643 -3.8474458800225673 -6.4124098000376124
A -6.4124098000376124 -3.8474458800225673 -5.5574218266992643
A -5.5574218266992643 -4.7024338533609154 -5.5574218266992643
A -4.7024338533609154 -4.7024338533609154 -6.4124098000376124
A -3.8474458800225673 -3.8474458800225673 -6.4124098000376124
A -4.7024338533609154 -3.8474458800225673 -5.5574218266992643
A -3.8474458800225673 -4.7024338533609154 -5.5574218266992643
A -2.9924579066842192 -4.7024338533609154 -6.4124098000376124
A -2.1374699333458707 -3.8474458800225673 -6.4124098000376124
A -2.9924579066842192 -3.8474458800225673 -5.5574218266992643
A -2.1374699333458707 -4.7024338533609154 -5.5574218266992643
A -1.2824819600075226 -4.7024338533609154 -6.4124098000376124
A -0.42749398666917415 -3.8474458800225673 -6.4124098000376124
A -1.2824819600075226 -3.8474458800225673 -5.5574218266992643
A -0.42749398666917415 -4.7024338533609154 -5.5574218266992643
A 0.42749398666917415 -4.7024338533609154 -6.4124098000376124
A 1.2824819600075226 -3.8474458800225673 -6.4124098000376124
A 0.42749398666917415 -3.8474458800225673 -5.5574218266992643
A 1.2824819600075226 -4.7024338533609154 -5.5574218266992643
A 2.1374699333458707 -4.7024338533609154 -6.4124098000376124
A 2.9924579066842192 -3.8474458800225673 -6.4124098000376124
A 2.1374699333458707 -3.8474458800225673 -5.5574218266992643
A 2.9924579066842192 -4.7024338533609154 -5.5574218266992643
A 3.8474458800225673 -4.7024338533609154 -6.4124098000376124
A 4.7024338533609154 -3.8474458800225673 -6.4124098000376124
A 3.8474458800225673 -3.8474458800225673 -5.5574218266992643
A 4.7024338533609154 -4.7024338533609154 -5.5574218266992643
A 5.5574218266992643 -4.7024338533609154 -6.4124098000376124
A 6.4124098000376124 -3.8474458800225673 -6.4124098000376124
A 5.5574218266992643 -3.8474458800225673 -5.5574218266992643
A 6.4124098000376124 -4.7024338533609154 -5.5574218266992643
A -6.4124098000376124 -2.9924579066842192 -6.4124098000376124
A -5.5574218266992643 -2.1374699333458707 -6.4124098000376124
A -6.4124098000376124 -2.1374699333458707 -5.5574218266992643
A -5.5574218266992643 -2.9924579066842192 -5.5574218266992643
A -4.7024338533609154 -2.9924579066842192 -6.4124098000376124
A -3.8474458800225673 -2.1374699333458707 -6.4124098000376124
A -4.7024338533609154 -2.1374699333458707 -5.5574218266992643
A -3.8474458800225673 -2.9924579066842192 -5.5574218266992643
A -2.9924579066842192 -2.9924579066842192 -6.4124098000376124
A -2.1374699333458707 -2.1374699333458707 -6.4124098000376124
A -2.9924579066842192 -2.1374699333458707 -5.5574218266992643
A -2.1374699333458707 -2.9924579066842192 -5.5574218266992643
A -1.2824819600075226 -2.9924579066842192 -6.4124098000376124
A -0.42749398666917415 -2.1374699333458707 -6.4124098000376124
A -1.2824819600075226 -2.1374699333458707 -5.5574218266992643
A -0.42749398666917415 -2.9924579066842192 -5.5574218266992643
A 0.42749398666917415 -2.9924579066842192 -6.4124098000376124
A 1.2824819600075226 -2.1374699333458707 -6.4124098000376124
A 0.42749398666917415 -2.1374699333458707 -5.5574218266992643
A 1.2824819600075226 -2.9924579066842192 -5.5574218266992643
A 2.1374699333458707 -2.9924579066842192 -6.4124098000376124
A 2.9924579066842192 -2.1374699333458707 -6.4124098000376124
A 2.1374699333458707 -2.1374699333458707 -5.5574218266992643
A 2.9924579066842192 -2.9924579066842192 -5.5574218266992643
A 3.8474458800225673 -2.9924579066842192 -6.4124098000376124
A 4.7024338533609154 -2.1374699333458707 -6.4124098000376124
A 3.8474458800225673 -2.1374699333458707 -5.5574218266992643
A 4.7024338533609154 -2.9924579066842192 -5.5574218266992643
A 5.5574218266992643 -2.9924579066842192 -6.4124098000376124
A 6.4124098000376124 -2.1374699333458707 -6.4124098000376124
A 5.5574218266992643 -2.1374699333458707 -5.5574218266992643
A 6.4124098000376124 -2.9924579066842192 -5.5574218266992643
A -6.4124098000376124 -1.2824819600075226 -6.4124098000376124
A -5.5574218266992643 -0.42749398666917415 -6.4124098000376124
A -6.4124098000376124 -0.42749398666917415 -5.5574218266992643
A -5.5574218266992643 -1.2824819600075226 -5.5574218266992643
A -4.7024338533609154 -1.2824819600075226 -6.4124098000376124
A -3.8474458800225673 -0.42749398666917415 -6.4124098000376124
A -4.7024338533609154 -0.42749398666917415 -5.5574218266992643
A -3.8474458800225673 -1.2824819600075226 -5.5574218266992643
A -2.9924579066842192 -1.2824819600075226 -6.4124098000376124
A -2.1374699333458707 -0.42749398666917415 -6.4124098000376124
A -2.9924579066842192 -0.42749398666917415 -5.5574218266992643
A -2.1374699333458707 -1.2824819600075226 -5.5574218266992643
A -1.2824819600075226 -1.2824819600075226 -6.4124098000376124
A -0.42749398666917415 -0.42749398666917415 -6.4124098000376124
A -1.2824819600075226 -0.42749398666917415 -5.5574218266992643
A -0.42749398666917415 -1.2824819600075226 -5.5574218266992643
A 0.42749398666917415 -1.2824819600075226 -6.4124098000376124
A 1.2824819600075226 -0.42749398666917415 -6.4124098000376124
A 0.42749398666917415 -0.42749398666917415 -5.5574218266992643
A 1.2824819600075226 -1.2824819600075226 -5.5574218266992643
A 2.1374699333458707 -1.2824819600075226 -6.4124098000376124
A 2.9924579066842192 -0.42749398666917415 -6.4124098000376124
A 2.1374699333458707 -0.42749398666917415 -5.5574218266992643
A 2.9924579066842192 -1.2824819600075226 -5.5574218266992643
A 3.8474458800225673 -1.2824819600075226 -6.4124098000376124
A 4.7024338533609154 -0.42749398666917415 -6.4124098000376124
A 3.8474458800225673 -0.42749398666917415 -5.5574218266992643
A 4.7024338533609154 -1.2824819600075226 -5.5574218266992643
A 5.5574218266992643 -1.2824819600075226 -6.4124098000376124
A 6.4124098000376124 -0.42749398666917415 -6.4124098000376124
A 5.5574218266992643 -0.42749398666917415 -5.5574218266992643
A 6.4124098000376124 -1.2824819600075226 -5.5574218266992643
A -6.4124098000376124 0.42749398666917415 -6.4124098000376124
A -5.5574218266992643 1.2824819600075226 -6.4124098000376124
A -6.4124098000376124 1.2824819600075226 -5.5574218266992643
A -5.5574218266992643 0.42749398666917415 -5.5574218266992643
A -4.7024338533609154 0.42749398666917415 -6.4124098000376124
A -3.8474458800225673 1.2824819600075226 -6.4124098000376124
A -4.7024338533609154 1.2824819600075226 -5.5574218266992643
A -3.8474458800225673 0.42749398666917415 -5.5574218266992643
A -2.9924579066842192 0.42749398666917415 -6.4124098000376124
A -2.1374699333458707 1.2824819600075226 -6.4124098000376124
A -2.9924579066842192 1.2824819600075226 -5.5574218266992643
A -2.1374699333458707 0.42749398666917415 -5.5574218266992643
A -1.2824819600075226 0.42749398666917415 -6.4124098000376124
A -0.42749398666917415 1.2824819600075226 -6.4124098000376124
A -1.2824819600075226 1.2824819600075226 -5.5574218266992643
A -0.42749398666917415 0.42749398666917415 -5.5574218266992643
A 0.42749398666917415 0.42749398666917415 -6.4124098000376124
A 1.2824819600075226 1.2824819600075226 -6.4124098000376124
A 0.42749398666917415 1.2824819600075226 -5.5574218266992643
A 1.2824819600075226 0.42749398666917415 -5.5574218266992643
A 2.1374699333458707 0.42749398666917415 -6.4124098000376124
A 2.9924579066842192 1.2824819600075226 -6.4124098000376124
A 2.1374699333458707 1.2824819600075226 -5.5574218266992643
A 2.9924579066842192 0.42749398666917415 -5.5574218266992643
A 3.8474458800225673 0.42749398666917415 -6.4124098000376124
A 4.7024338533609154 1.2824819600075226 -6.4124098000376124
A 3.8474458800225673 1.2824819600075226 -5.5574218266992643
A 4.7024338533609154 0.42749398666917415 -5.5574218266992643
A 5.5574218266992643 0.42749398666917415 -6.4124098000376124
A 6.4124098000376124 1.2824819600075226 -6.4124098000376124
A 5.5574218266992643 1.2824819600075226 -5.5574218266992643
A 6.4124098000376124 0.42749398666917415 -5.5574218266992643
A -6.4124098000376124 2.1374699333458707 -6.4124098000376124
A -5.5574218266992643 2.9924579066842192 -6.4124098000376124
A -6.4124098000376124 2.9924579066842192 -5.5574218266992643
A -5.5574218266992643 2.1374699333458707 -5.5574218266992643
A -4.7024338533609154 2.1374699333458707 -6.4124098000376124
A -3.8474458800225673 2.9924579066842192 -6.4124098000376124
A -4.7024338533609154 2.9924579066842192 -5.5574218266992643
A -3.8474458800225673 2.1374699333458707 -5.5574218266992643
A -2.9924579066842192 2.1374699333458707 -6.4124098000376124
A -2.1374699333458707 2.9924579066842192 -6.4124098000376124
A -2.9924579066842192 2.9924579066842192 -5.5574218266992643
A -2.1374699333458707 2.1374699333458707 -5.5574218266992643
A -1.2824819600075226 2.1374699333458707 -6.4124098000376124
A -0.42749398666917415 2.9924579066842192 -6.4124098000376124
A -1.2824819600075226 2.9924579066842192 -5.5574218266992643
A -0.42749398666917415 2.1374699333458707 -5.5574218266992643
A 0.42749398666917415 2.1374699333458707 -6.4124098000376124
A 1.2824819600075226 2.9924579066842192 -6.4124098000376124
A 0.42749398666917415 2.9924579066842192 -5.5574218266992643
A 1.2824819600075226 2.1374699333458707 -5.5574218266992643
A 2.1374699333458707 2.1374699333458707 -6.4124098000376124
A 2.9924579066842192 2.9924579066842192 -6.4124098000376124
A 2.1374699333458707 2.9924579066842192 -5.5574218266992643
A 2.9924579066842192 2.1374699333458707 -5.5574218266992643
A 3.8474458800225673 2.1374699333458707 -6.4124098000376124
A 4.7024338533609154 2.9924579066842192 -6.4124098000376124
A 3.8474458800225673 2.9924579066842192 -5.5574218266992643
A 4.7024338533609154 2.1374699333458707 -5.5574218266992643
A 5.5574218266992643 2.1374699333458707 -6.4124098000376124
A 6.4124098000376124 2.9924579066842192 -6.4124098000376124
A 5.5574218266992643 2.9924579066842192 -5.5574218266992643
A 6.4124098000376124 2.1374699333458707 -5.5574218266992643
A -6.4124098000376124 3.8474458800225673 -6.4124098000376124
A -5.5574218266992643 4.7024338533609154 -6.4124098000376124
A -6.4124098000376124 4.7024338533609154 -5.5574218266992643
A -5.5574218266992643 3.8474458800225673 -5.5574218266992643
A -4.7024338533609154 3.8474458800225673 -6.4124098000376124
A -3.8474458800225673 4.7024338533609154 -6.4124098000376124
A -4.7024338533609154 4.7024338533609154 -5.5574218266992643
A -3.8474458800225673 3.8474458800225673 -5.5574218266992643
A -2.9924579066842192 3.8474458800225673 -6.4124098000376124
A -2.1374699333458707 4.7024338533609154 -6.4124098000376124
A -2.9924579066842192 4.7024338533609154 -5.5574218266992643
A -2.1374699333458707 3.8474458800225673 -5.5574218266992643
A -1.2824819600075226 3.8474458800225673 -6.4124098000376124
A -0.42749398666917415 4.7024338533609154 -6.4124098000376124
A -1.2824819600075226 4.7024338533609154 -5.5574218266992643
A -0.42749398666917415 3.8474458800225673 -5.5574218266992643
A 0.42749398666917415 3.8474458800225673 -6.4124098000376124
A 1.2824819600075226 4.7024338533609154 -6.4124098000376124
A 0.42749398666917415 4.7024338533609154 -5.5574218266992643
A 1.2824819600075226 3.8474458800225673 -5.5574218266992643
A 2.1374699333458707 3.8474458800225673 -6.4124098000376124
A 2.9924579066842192 4.7024338533609154 -6.4124098000376124
A 2.1374699333458707 4.7024338533609154 -5.5574218266992643
A 2.9924579066842192 3.8474458800225673 -5.5574218266992643
A 3.8474458800225673 3.8474458800225673 -6.4124098000376124
A 4.7024338533609154 4.7024338533609154 -6.4124098000376124
A 3.8474458800225673 4.7024338533609154 -5.5574218266992643
A 4.7024338533609154 3.8474458800225673 -5.5574218266992643
A 5.5574218266992643 3.8474458800225673 -6.4124098000376124
A 6.4124098000376124 4.7024338533609154 -6.4124098000376124
A 5.5574218266992643 4.7024338533609154 -5.5574218266992643
A 6.4124098000376124 3.8474458800225673 -5.5574218266992643
A -6.4124098000376124 5.5574218266992643 -6.4124098000376124
A -5.5574218266992643 6.4124098000376124 -6.4124098000376124
A -6.4124098000376124 6.4124098000376124 -5.5574218266992643
A -5.5574218266992643 5.5574218266992643 -5.5574218266992643
A -4.7024338533609154 5.5574218266992643 -6.4124098000376124
A -3.8474458800225673 6.4124098000376124 -6.4124098000376124
A -4.7024338533609154 6.4124098000376124 -5.5574218266992643
A -3.8474458800225673 5.5574218266992643 -5.5574218266992643
A -2.9924579066842192 5.5574218266992643 -6.4124098000376124
A -2.1374699333458707 6.4124098000376124 -6.4124098000376124
A -2.9924579066842192 6.4124098000376124 -5.5574218266992643
A -2.1374699333458707 5.5574218266992643 -5.5574218266992643
A -1.2824819600075226 5.5574218266992643 -6.4124098000376124
A -0.42749398666917415 6.4124098000376124 -6.4124098000376124
A -1.2824819600075226 6.4124098000376124 -5.5574218266992643
A -0.42749398666917415 5.5574218266992643 -5.5574218266992643
A 0.42749398666917415 5.5574218266992643 -6.4124098000376124
A 1.2824819600075226 6.4124098000376124 -6.4124098000376124
A 0.42749398666917415 6.4124098000376124 -5.5574218266992643
A 1.2824819600075226 5.5574218266992643 -5.5574218266992643
A 2.1374699333458707 5.5574218266992643 -6.4124098000376124
A 2.9924579066842192 6.4124098000376124 -6.4124098000376124
A 2.1374699333458707 6.4124098000376124 -5.5574218266992643
A 2.9924579066842192 5.5574218266992643 -5.5574218266992643
A 3.8474458800225673 5.5574218266992643 -6.4124098000376124
A 4.7024338533609154 6.4124098000376124 -6.4124098000376124
A 3.8474458800225673 6.4124098000376124 -5.5574218266992643
A 4.7024338533609154 5.5574218266992643 -5.5574218266992643
A 5.5574218266992643 5.5574218266992643 -6.4124098000376124
A 6.4124098000376124 6.4124098000376124 -6.4124098000376124
A 5.5574218266992643 6.4124098000376124 -5.5574218266992643
A 6.4124098000376124 5.5574218266992643 -5.5574218266992643
A -6.4124098000376124 -6.4124098000376124 -4.7024338533609154
A -5.5574218266992643 -5.5574218266992643 -4.7024338533609154
A -6.4124098000376124 -5.5574218266992643 -3.8474458800225673
A -5.5574218266992643 -6.4124098000376124 -3.8474458800225673
A -4.7024338533609154 -6.4124098000376124 -4.7024338533609154
A -3.8474458800225673 -5.5574218266992643 -4.7024338533609154
A -4.7024338533609154 -5.5574218266992643 -3.8474458800225673
A -3.8474458800225673 -6.4124098000376124 -3.8474458800225673
A -2.9924579066842192 -6.4124098000376124 -4.7024338533609154
A -2.1374699333458707 -5.5574218266992643 -4.7024338533609154
A -2.9924579066842192 -5.5574218266992643 -3.8474458800225673
A -2.1374699333458707 -6.4124098000376124 -3.8474458800225673
A -1.2824819600075226 -6.4124098000376124 -4.7024338533609154
A -0.42749398666917415 -5.5574218266992643 -4.7024338533609154
A -1.2824819600075226 -5.5574218266992643 -3.8474458800225673
A -0.42749398666917415 -6.4124098000376124 -3.8474458800225673
A 0.42749398666917415 -6.4124098000376124 -4.7024338533609154
A 1.2824819600075226 -5.5574218266992643 -4.7024338533609154
A 0.42749398666917415 -5.5574218266992643 -3.8474458800225673
A 1.2824819600075226 -6.4124098000376124 -3.8474458800225673
A 2.1374699333458707 -6.4124098000376124 -4.7024338533609154
A 2.9924579066842192 -5.5574218266992643 -4.7024338533609154
A 2.1374699333458707 -5.5574218266992643 -3.8474458800225673
A 2.9924579066842192 -6.4124098000376124 -3.8474458800225673
A 3.8474458800225673 -6.4124098000376124 -4.7024338533609154
A 4.7024338533609154 -5.5574218266992643 -4.7024338533609154
A 3.8474458800225673 -5.5574218266992643 -3.8474458800225673
A 4.7024338533609154 -6.4124098000376124 -3.8474458800225673
A 5.5574218266992643 -6.4124098000376124 -4.7024338533609154
A 6.4124098000376124 -5.5574218266992643 -4.7024338533609154
A 5.5574218266992643 -5.5574218266992643 -3.8474458800225673
A 6.4124098000376124 -6.4124098000376124 -3.8474458800225673
A -6.4124098000376124 -4.7024338533609154 -4.7024338533609154
A -5.5574218266992643 -3.8474458800225673 -4.7024338533609154
A -6.4124098000376124 -3.8474458800225673 -3.8474458800225673
A -5.5574218266992643 -4.7024338533609154 -3.8474458800225673
A -4.7024338533609154 -4.7024338533609154 -4.7024338533609154
A -3.8474458800225673 -3.8474458800225673 -4.7024338533609154
A -4.7024338533609154 -3.8474458800225673 -3.8474458800225673
A -3.8474458800225673 -4.7024338533609154 -3.8474458800225673
A -2.9924579066842192 -4.7024338533609154 -4.7024338533609154
A -2.1374699333458707 -3.8474458800225673 -4.7024338533609154
A -2.9924579066842192 -3.8474458800225673 -3.8474458800225673
A -2.1374699333458707 -4.7024338533609154 -3.8474458800225673
A -1.2824819600075226 -4.7024338533609154 -4.7024338533609154
A -0.42749398666917415 -3.8474458800225673 -4.7024338533609154
A -1.2824819600075226 -3.8474458800225673 -3.8474458800225673
A -0.42749398666917415 -4.7024338533609154 -3.8474458800225673
A 0.42749398666917415 -4.7024338533609154 -4.7024338533609154
A 1.2824819600075226 -3.8474458800225673 -4.7024338533609154
A 0.42749398666917415 -3.8474458800225673 -3.8474458800225673
A 1.2824819600075226 -4.7024338533609154 -3.8474458800225673
A 2.1374699333458707 -4.7024338533609154 -4.7024338533609154
A 2.9924579066842192 -3.8474458800225673 -4.7024338533609154
A 2.1374699333458707 -3.8474458800225673 -3.8474458800225673
A 2.9924579066842192 -4.7024338533609154 -3.8474458800225673
A 3.8474458800225673 -4.7024338533609154 -4.7024338533609154
A 4.7024338533609154 -3.8474458800225673 -4.7024338533609154
A 3.8474458800225673 -3.8474458800225673 -3.8474458800225673
A 4.7024338533609154 -4.7024338533609154 -3.8474458800225673
A 5.5574218266992643 -4.7024338533609154 -4.7024338533609154
A 6.4124098000376124 -3.8474458800225673 -4.7024338533609154
A 5.5574218266992643 -3.8474458800225673 -3.8474458800225673
A 6.4124098000376124 -4.7024338533609154 -3.8474458800225673
A -6.4124098000376124 -2.9924579066842192 -4.7024338533609154
A -5.5574218266992643 -2.1374699333458707 -4.7024338533609154
A -6.4124098000376124 -2.1374699333458707 -3.8474458800225673
A -5.5574218266992643 -2.9924579066842192 -3.8474458800225673
A -4.7024338533609154 -2.9924579066842192 -4.7024338533609154
A -3.8474458800225673 -2.1374699333458707 -4.7024338533609154
A -4.7024338533609154 -2.1374699333458707 -3.8474458800225673
A -3.8474458800225673 -2.9924579066842192 -3.8474458800225673
A -2.9924579066842192 -2.9924579066842192 -4.7024338533609154
A -2.1374699333458707 -2.1374699333458707 -4.7024338533609154
A -2.9924579066842192 -2.1374699333458707 -3.8474458800225673
A -2.1374699333458707 -2.9924579066842192 -3.8474458800225673
A -1.2824819600075226 -2.9924579066842192 -4.7024338533609154
A -0.42749398666917415 -2.1374699333458707 -4.7024338533609154
A -1.2824819600075226 -2.1374699333458707 -3.8474458800225673
A -0.42749398666917415 -2.9924579066842192 -3.8474458800225673
A 0.42749398666917415 -2.9924579066842192 -4.7024338533609154
A 1.2824819600075226 -2.1374699333458707 -4.7024338533609154
A 0.42749398666917415 -2.1374699333458707 -3.8474458800225673
A 1.2824819600075226 -2.9924579066842192 -3.8474458800225673
A 2.1374699333458707 -2.9924579066842192 -4.7024338533609154
A 2.9924579066842192 -2.1374699333458707 -4.7024338533609154
A 2.1374699333458707 -2.1374699333458707 -3.8474458800225673
A 2.9924579066842192 -2.9924579066842192 -3.8474458800225673
A 3.8474458800225673 -2.9924579066842192 -4.7024338533609154
A 4.7024338533609154 -2.1374699333458707 -4.7024338533609154
A 3.8474458800225673 -2.1374699333458707 -3.8474458800225673
A 4.7024338533609154 -2.9924579066842192 -3.8474458800225673
A 5.5574218266992643 -2.9924579066842192 -4.7024338533609154
A 6.4124098000376124 -2.1374699333458707 -4.7024338533609154
A 5.5574218266992643 -2.1374699333458707 -3.8474458800225673
A 6.4124098000376124 -2.9924579066842192 -3.8474458800225673
A -6.4124098000376124 -1.2824819600075226 -4.7024338533609154
A -5.5574218266992643 -0.42749398666917415 -4.7024338533609154
A -6.4124098000376124 -0.42749398666917415 -3.8474458800225673
A -5.5574218266992643 -1.2824819600075226 -3.8474458800225673
A -4.7024338533609154 -1.2824819600075226 -4.7024338533609154
A -3.8474458800225673 -0.42749398666917415 -4.7024338533609154
A -4.7024338533609154 -0.42749398666917415 -3.8474458800225673
A -3.8474458800225673 -1.2824819600075226 -3.8474458800225673
A -2.9924579066842192 -1.2824819600075226 -4.7024338533609154
A -2.1374699333458707 -0.42749398666917415 -4.7024338533609154
A -2.9924579066842192 -0.42749398666917415 -3.8474458800225673
A -2.1374699333458707 -1.2824819600075226 -3.8474458800225673
A -1.2824819600075226 -1.2824819600075226 -4.7024338533609154
A -0.42749398666917415 -0.42749398666917415 -4.7024338533609154
A -1.2824819600075226 -0.42749398666917415 -3.8474458800225673
A -0.42749398666917415 -1.2824819600075226 -3.8474458800225673
A 0.42749398666917415 -1.2824819600075226 -4.7024338533609154
A 1.2824819600075226 -0.42749398666917415 -4.7024338533609154
A 0.42749398666917415 -0.42749398666917415 -3.8474458800225673
A 1.2824819600075226 -1.2824819600075226 -3.8474458800225673
A 2.1374699333458707 -1.2824819600075226 -4.7024338533609154
A 2.9924579066842192 -0.42749398666917415 -4.7024338533609154
A 2.1374699333458707 -0.42749398666917415 -3.8474458800225673
A 2.9924579066842192 -1.2824819600075226 -3.8474458800225673
A 3.8474458800225673 -1.2824819600075226 -4.7024338533609154
A 4.7024338533609154 -0.42749398666917415 -4.7024338533609154
A 3.8474458800225673 -0.42749398666917415 -3.8474458800225673
A 4.7024338533609154 -1.2824819600075226 -3.8474458800225673
A 5.5574218266992643 -1.2824819600075226 -4.7024338533609154
A 6.4124098000376124 -0.42749398666917415 -4.7024338533609154
A 5.5574218266992643 -0.42749398666917415 -3.8474458800225673
A 6.4124098000376124 -1.2824819600075226 -3.8474458800225673
A -6.4124098000376124 0.42749398666917415 -4.7024338533609154
A -5.5574218266992643 1.2824819600075226 -4.7024338533609154
A -6.4124098000376124 1.2824819600075226 -3.8474458800225673
A -5.5574218266992643 0.42749398666917415 -3.8474458800225673
A -4.7024338533609154 0.42749398666917415 -4.7024338533609154
A -3.8474458800225673 1.2824819600075226 -4.7024338533609154
A -4.7024338533609154 1.2824819600075226 -3.8474458800225673
A -3.8474458800225673 0.42749398666917415 -3.8474458800225673
A -2.9924579066842192 0.42749398666917415 -4.7024338533609154
A -2.1374699333458707 1.2824819600075226 -4.7024338533609154
A -2.9924579066842192 1.2824819600075226 -3.8474458800225673
A -2.1374699333458707 0.42749398666917415 -3.8474458800225673
A -1.2824819600075226 0.42749398666917415 -4.7024338533609154
A -0.42749398666917415 1.2824819600075226 -4.7024338533609154
A -1.2824819600075226 1.2824819600075226 -3.8474458800225673
A -0.42749398666917415 0.42749398666917415 -3.8474458800225673
A 0.42749398666917415 0.42749398666917415 -4.7024338533609154
A 1.2824819600075226 1.2824819600075226 -4.7024338533609154
A 0.42749398666917415 1.2824819600075226 -3.8474458800225673
A 1.2824819600075226 0.42749398666917415 -3.8474458800225673
A 2.1374699333458707 0.42749398666917415 -4.7024338533609154
A 2.9924579066842192 1.2824819600075226 -4.7024338533609154
A 2.1374699333458707 1.2824819600075226 -3.8474458800225673
A 2.9924579066842192 0.42749398666917415 -3.8474458800225673
A 3.8474458800225673 0.42749398666917415 -4.7024338533609154
A 4.7024338533609154 1.2824819600075226 -4.7024338533609154
A 3.8474458800225673 1.2824819600075226 -3.8474458800225673
A 4.7024338533609154 0.42749398666917415 -3.8474458800225673
A 5.5574218266992643 0.42749398666917415 -4.7024338533609154
A 6.4124098000376124 1.2824819600075226 -4.7024338533609154
A 5.5574218266992643 1.2824819600075226 -3.8474458800225673
A 6.4124098000376124 0.42749398666917415 -3.8474458800225673
A -6.4124098000376124 2.1374699333458707 -4.7024338533609154
A -5.5574218266992643 2.9924579066842192 -4.7024338533609154
A -6.4124098000376124 2.9924579066842192 -3.8474458800225673
A -5.5574218266992643 2.1374699333458707 -3.8474458800225673
A -4.7024338533609154 2.1374699333458707 -4.7024338533609154
A -3.8474458800225673 2.9924579066842192 -4.7024338533609154
A -4.7024338533609154 2.9924579066842192 -3.8474458800225673
A -3.8474458800225673 2.1374699333458707 -3.8474458800225673
A -2.9924579066842192 2.1374699333458707 -4.7024338533609154
A -2.1374699333458707 2.9924579066842192 -4.7024338533609154
A -2.9924579066842192 2.9924579066842192 -3.8474458800225673
A -2.1374699333458707 2.1374699333458707 -3.8474458800225673
A -1.2824819600075226 2.1374699333458707 -4.7024338533609154
A -0.42749398666917415 2.9924579066842192 -4.7024338533609154
A -1.2824819600075226 2.9924579066842192 -3.8474458800225673
A -0.42749398666917415 2.1374699333458707 -3.8474458800225673
A 0.42749398666917415 2.1374699333458707 -4.7024338533609154
A 1.2824819600075226 2.9924579066842192 -4.7024338533609154
A 0.42749398666917415 2.9924579066842192 -3.8474458800225673
A 1.2824819600075226 2.1374699333458707 -3.8474458800225673
A 2.1374699333458707 2.1374699333458707 -4.7024338533609154
A 2.9924579066842192 2.9924579066842192 -4.7024338533609154
A 2.1374699333458707 2.9924579066842192 -3.8474458800225673
A 2.9924579066842192 2.1374699333458707 -3.8474458800225673
A 3.8474458800225673 2.1374699333458707 -4.7024338533609154
A 4.7024338533609154 2.9924579066842192 -4.7024338533609154
A 3.8474458800225673 2.9924579066842192 -3.8474458800225673
A 4.7024338533609154 2.1374699333458707 -3.8474458800225673
A 5.5574218266992643 2.1374699333458707 -4.7024338533609154
A 6.4124098000376124 2.9924579066842192 -4.7024338533609154
A 5.5574218266992643 2.9924579066842192 -3.8474458800225673
A 6.4124098000376124 2.1374699333458707 -3.8474458800225673
A -6.4124098000376124 3.8474458800225673 -4.7024338533609154
A -5.5574218266992643 4.7024338533609154 -4.7024338533609154
A -6.4124098000376124 4.7024338533609154 -3.8474458800225673
A -5.5574218266992643 3.8474458800225673 -3.8474458800225673
A -4.7024338533609154 3.8474458800225673 -4.7024338533609154
A -3.8474458800225673 4.7024338533609154 -4.7024338533609154
A -4.7024338533609154 4.7024338533609154 -3.8474458800225673
A -3.8474458800225673 3.8474458800225673 -3.8474458800225673
A -2.9924579066842192 3.8474458800225673 -4.7024338533609154
A -2.1374699333458707 4.7024338533609154 -4.7024338533609154
A -2.9924579066842192 4.7024338533609154 -3.8474458800225673
A -2.1374699333458707 3.8474458800225673 -3.8474458800225673
A -1.2824819600075226 3.8474458800225673 -4.7024338533609154
A -0.42749398666917415 4.7024338533609154 -4.7024338533609154
A -1.2824819600075226 4.7024338533609154 -3.8474458800225673
A -0.42749398666917415 3.8474458800225673 -3.8474458800225673
A 0.42749398666917415 3.8474458800225673 -4.7024338533609154
A 1.2824819600075226 4.7024338533609154 -4.7024338533609154
A 0.42749398666917415 4.7024338533609154 -3.8474458800225673
A 1.2824819600075226 3.8474458800225673 -3.8474458800225673
A 2.1374699333458707 3.8474458800225673 -4.7024338533609154
A 2.9924579066842192 4.7024338533609154 -4.7024338533609154
A 2.1374699333458707 4.7024338533609154 -3.8474458800225673
A 2.9924579066842192 3.8474458800225673 -3.8474458800225673
A 3.8474458800225673 3.8474458800225673 -4.7024338533609154
A 4.7024338533609154 4.7024338533609154 -4.7024338533609154
A 3.8474458800225673 4.7024338533609154 -3.8474458800225673
A 4.7024338533609154 3.8474458800225673 -3.8474458800225673
A 5.5574218266992643 3.8474458800225673 -4.7024338533609154
A 6.4124098000376124 4.7024338533609154 -4.7024338533609154
A 5.5574218266992643 4.7024338533609154 -3.8474458800225673
A 6.4124098000376124 3.8474458800225673 -3.8474458800225673
A -6.4124098000376124 5.5574218266992643 -4.7024338533609154
A -5.5574218266992643 6.4124098000376124 -4.7024338533609154
A -6.4124098000376124 6.4124098000376124 -3.8474458800225673
A -5.5574218266992643 5.5574218266992643 -3.8474458800225673
A -4.7024338533609154 5.5574218266992643 -4.7024338533609154
A -3.8474458800225673 6.4124098000376124 -4.7024338533609154