ITEM: TIMESTEP
0
ITEM: NUMBER OF ATOMS
1372
ITEM: BOX BOUNDS pp pp pp
-6.999999999999999 6.999999999999999
-6.999999999999999 6.999999999999999
-6.999999999999999 6.999999999999999
ITEM: ATOMS type x y z
A -5.3510150524719462 -6.3062704452184919 -6.8538925298544395
A -4.0259192118714635 -5.495007812705885 -6.4990110605903446
A -6.4704638569833284 -4.8157710715536517 -5.1770269574265653
A -4.3556925444156551 -6.359169823942775 -5.6293571115372947
A -3.5124684217745927 -6.3828586759441048 -6.6270462110738135
A -2.8220816453377338 -5.5191165995603564 -6.8541893986024842
A -3.8807121075580486 -5.2435476946732908 -4.9835770663248029
A -1.9861452099467476 -6.1415053318183634 -6.4091033433081606
A -1.4624957574888673 -6.6300601113835613 6.6632033213822499
A -0.64225435079433513 -5.8273764597092566 6.8471572633598594
A -1.7978104703180537 -5.3391798104948025 -4.41892863403036
A -0.56654496956710554 -6.8917098463150417 -6.5203323148366961
A 0.71959776481211135 -6.0678687293874196 -6.5278095659566819
A 1.2574513220781991 -5.6302323031207555 -5.7376037705392813
A 1.3441057565634928 -6.9220539327988506 -5.4881930693587515
A 2.3817567119107195 -5.3721468570667774 -5.2971653188553756
A 2.7058727406351557 -5.7815067660586985 6.6030818002794529
A 3.9271660143018932 -5.2136758946988779 -6.5804675933836272
A 2.6238236604120098 -5.3785245430664093 -6.357739293337743
A 3.0684744954531857 -6.7840936641838274 -5.4907895364161252
A 3.608382262528127 -6.1083186665106339 -6.9932450779495152
A 5.7537424628543459 -4.3546483291700282 6.6571317462403874
A 4.7511939056563932 -5.856698256949902 -6.2437917033106736
A 5.1353215917448596 -6.6839805817438149 -5.584930140601589
A 5.7100797758533179 -6.3139873280060712 -6.3762458147491712
A -6.4256635068277062 -5.7435102388164161 6.8412799237885897
A 5.7296643371084368 -5.6850633399612498 -5.4815242845634486
A 6.7867351440456423 -6.6205470811720373 -4.7135315059872465
A -5.2970679473742219 -4.3051780551073096 -6.3049798583927554
A -5.1168832566622733 -4.0260286588626437 6.6212521543314251
A -5.2369628949022777 -3.734127952214934 -5.2369885371198626
A -4.4933678353417283 -4.7603108415893098 -5.8803690875277024
A -3.1360236390078775 -4.422466922545313 -6.7881472889635974
A -3.3148307793026941 -4.634972899952424 -5.6538517356706093
A -3.9075469593105265 -3.1529555241411633 -5.1351990929726679
A -1.9702749819923269 -5.4962024589835314 -5.5500422663812534
A -2.4100209269229844 -4.2015352194127349 -6.120952384188449
A -0.54145561082762006 -3.1087655671106167 -5.8232158505423222
A -1.0518698416288197 -3.9465514774602193 -6.4222461876349977
A -0.30826201220989952 -4.3952777825782245 -5.7684643243441664
A -0.59140752242908945 -4.778435859223471 -6.9434396654486026
A 0.076839129300852557 -3.9051613323596972 -6.8006779663508814
A 1.0698714461796401 -3.9597164342108995 -5.8331056229306588
A 1.4678127581514659 -3.7083589948550895 -4.8308460569874407
A 2.2396874003586156 -3.9318259653752903 -6.5584790926345677
A 3.3026677436306247 -3.0084050351129625 5.8203008700274292
A 1.6717506668889943 -2.9813612213228509 -5.7673519199610812
A 4.3006128409766093 -3.6057304545858138 -6.1429523499080538
A 3.078732716124208 -4.6570881051307031 -5.7128075320233522
A 5.3231629904264706 -3.7949721860155536 -6.2803560017943498
A 3.3969007134082472 -3.5045334336118747 -5.4575437215795537
A 4.46941294516715 -4.7054834897821882 6.1419206732448375
A 6.5605890963307782 -6.2576445843961386 6.8965973526053119
A -6.7196695965739215 -3.0919999983992406 -6.5844949370529626
A 6.2752085369051711 -4.3831661756331295 -6.2619077944882857
A -5.5803336636959067 -3.3060495702780304 -6.2328627190703463
A -6.0597273214477205 -2.3007272386754112 -6.4573386279288449
A -5.2243025032484294 -1.6944464368646945 -6.7916945263165207
A -4.8659640376282471 -1.2731994608033266 -5.8144654133519635
A -4.8255915420045401 -2.7111578532435825 -5.6437985823399552
A -3.4403049373204864 -3.5419916304185435 -6.3022737273943559
A -2.6658755708984354 -1.5658879169105395 -6.4002897656817916
A -3.2831523847180488 -2.3488692226196952 -4.7586559255393128
A -2.0870793409955781 -2.225721689161996 -5.7624491519312988
A -1.1360628222676383 -2.8270605702641967 -6.7275509947631384
A 0.25514917282922883 -1.2450844368337384 -6.5641048486217723
A -1.362584562266469 -1.3416747646725029 -5.1280099335099942
A -1.5565894902788242 -3.5325235594778079 -5.5764312412260848
A -0.04133385912834555 -2.3422473822592171 -6.4889630137514631
A 1.3388487662692741 0.19761156184858172 6.4136935664730901
A 1.0867260573117405 -0.98914368825531784 -5.9132060251354721
A 0.9715015859129853 -2.1873873662891783 -4.7673635521201589
A 1.8419779126655678 -2.7037517144823244 6.9354208276702378
A 3.0290831358604029 -2.5083142851110729 -5.3507947108459648
A 2.9722282754028289 -0.69568965932767135 -5.2814365452550787
A 3.0185112085250343 -1.4944008692698814 -4.5355330180680751
A 3.6340985312786525 -2.4626527342022113 -6.1743676116037527
A 4.5323485943461659 -1.8847132483875808 -6.2475496836133644
A 3.6399962089649422 -1.6524010429001126 -5.5625667955965286
A 5.1974967066348077 -2.668208319810228 -6.2606079113028112
A 6.4211744370748232 -2.2880386141642881 -6.7117311239136868
A 6.9285882203492353 -1.8472241507251643 -5.8069865270594212
A 5.6811494469890453 -1.7091181661710459 -6.0753122766146159
A -5.7956771067093094 -2.7474311944929766 -5.3190836640281534
A -4.7713269143296158 -0.73769229362406152 -6.907602789662973
A -4.9096609793666 1.1614813295427573 6.6484039696424846
A -3.8763732822858672 0.22895720019751906 -6.7466118147545391
A -3.8360670543277036 -1.280054520185584 -6.5795737672469699
A -2.8175192813571774 -0.39453817288237591 -6.2651668475088798
A -2.1327988462631895 -0.49110666710383205 5.6967170140450669
A -3.485470819906713 0.30274915949015263 -5.6230595983723699
A -2.4465657196915562 -1.4455656878985976 -5.0975875390068337
A -0.82682034046684683 -0.49207062099610133 -6.6768830968715047
A -0.17261930332573569 1.7851430778527237 -5.7535555083142009
A -2.8586828598985323 0.65276684648117922 -6.8001413435397451
A -1.4052075486498568 0.012686806801835629 -5.9862159571871603
A 0.15988833696078092 -0.23577115269242985 -5.925287353958808
A 0.75120846606677161 0.78502666221264927 -6.8569153568683303
A 0.62345266312149783 0.66844005471938139 -5.7507556239390327
A 2.2432934550505794 -0.026876499387013912 -5.7023318018545304
A 2.6407870517950602 1.2599502448812478 -6.0448329243400343
A 3.6587253222550129 0.21280832697084989 -5.8368419839200456
A 2.6145430423595912 0.92576633418847842 -4.9755881125833072
A 4.1061024298026281 0.33141568087036877 -4.7945754223930219
A 3.8384016831980268 -0.12395275905442132 6.8699293822283254
A 4.9339426629412699 0.044101040802735809 -6.9860397545760229
A 4.5588063359336886 0.67997922623624762 -5.8166316873935573
A 5.9323549546536558 -0.37330097166182019 -6.9117860006234446
A 6.7190184095507011 -1.0261825847038903 -6.4874584731663365
A -6.2951186758046029 0.83080677312002893 -6.9553861758466633
A 6.4711761820023943 0.12528352266054368 -5.4877028562791139
A -6.7882787920811314 -0.58682127379405558 -5.3875851771643806
A -5.3638622605483741 1.5987932165345418 -6.4700168650210799
A -4.3250227156286556 2.3829589047704745 -5.6521184132922864
A -5.5405771869903813 1.7503432058483086 -5.1473535973357958
A -3.6129073434979002 1.6105056773024558 -5.3220955870208382
A -3.1539745413067632 2.1214896171270721 6.860225250107848
A -2.446181846285771 2.1250525210977576 -6.3058745224966737
A -3.4699994437402339 2.2747953394144096 -6.1731297889364454
A -2.293610020968269 2.0149614684912409 -5.2985398184027961
A -1.6179993538719455 1.350070700349518 -5.9680720007918309
A -0.92272399458402665 1.6068103932694471 -6.9489351157024428
A -1.3764448116096222 2.6610404311713927 -6.0690277129377179
A -0.95369062647986635 1.7905704668113192 -4.8332445523734258
A 0.99438186845432253 1.5969975206188742 -6.154176086148456
A -0.12781433936033032 3.7850942059609571 -5.9479081650561598
A 0.69251134297932671 2.9518524483384314 -5.6494389251098118
A 1.7370041126862099 0.96796140320566959 -5.6714836903436314
A 3.4886382253608028 0.88150092240210676 -6.7923925875491973
A 2.6754248468097659 2.7305998335103312 -5.9456889271380442
A 2.9031368360358707 1.9429037275638039 -5.1264168914876302
A 3.7813844175001488 1.4141438248461844 -5.7916486326777799
A 4.6413297958878763 1.8380459299664778 -6.2805501704001578
A 5.9432589485622787 1.9257715342329722 -6.6002799032019981
A 4.4663686795514357 1.8834782346648151 -5.2005648585206448
A 5.6474277554508783 0.54754989563984691 -6.256129141477861
A 6.5265795909104742 1.1335616484154436 -6.3231369797768879
A -6.2753649664119546 2.8027466285300835 -6.2006375616696738
A 6.645780864865805 2.2658747392294116 -5.9056692361950898
A -5.566802776273347 0.80908801994730262 -5.68175913248733
A -6.2461239076797375 2.3931588488101805 5.6840994357865835
A -5.6717341284326004 3.5923155695238047 -6.7743720875047826
A -5.9556802448739301 4.9398621906111799 -4.5784411147331774
A -5.3542322795484578 2.9640502623220319 -5.3670996377533022
A -4.1810337430643782 3.3304248226472435 -6.4613861828801564
A -3.9394918857830947 4.3394405702788248 -5.9502495498772312
A -4.5696570527025768 5.1196257869692445 -6.0614170252801713
A -2.0541475836997103 4.0866966656801251 -5.230106730155673
A -2.0847156955328678 3.9625029971300649 -6.3545007884448035
A 0.53987325957541354 4.2894775287297833 -6.5273438206915211
A -1.3570928227651891 4.7109042062413256 -5.6522056109316372
A -0.40239319728730344 2.8640906980970895 -5.2229536169834763
A 0.81642940204734105 5.0420001172512965 -5.6893057089537997
A 1.8904543799575377 4.6159794992373966 -6.154132605217538
A 0.49676772697273314 5.2740303863511171 -4.6832989942335006
A 1.7090461362447369 2.6828126149439147 -5.6510267710545659
A 2.2338565355063049 2.5889087654648502 -6.9112342726068441
A 3.1458796151313777 3.0469969830855423 -6.9187744295625349
A 1.6398310681323056 3.5740205168667494 -4.92957481561601
A 3.3871965938787647 3.8720926384461918 -4.8959026295689085
A 4.380811248391252 4.443121719360926 -5.8720867169434046
A 4.7073662833142267 4.5627565135786394 -6.9627919719825329
A 5.1696697972226913 3.8229228272371323 -5.9644643937327073
A 5.3568027943429399 2.6553377056944063 -5.2914370778876734
A 6.4962534886885575 2.6666428345656228 6.9784620898724006
A -6.0357702158143134 3.7011116572680405 -5.7736791509990653
A 6.3811520192278177 3.6121307284903104 -3.7678027659447109
A -6.5278211784406377 2.6758828052561445 -5.2081608889227553
A -5.4700246359160234 5.6734630501465206 -6.4196694550744953
A -4.6887131872942236 6.533678423464802 -6.0529100646687839
A -5.5558587070275225 -6.6775780465116554 -5.8969345329428799
A -4.853402937874419 5.9001050586674113 -4.5298350225149422
A -4.4039576763027641 5.8060861951648448 -6.7829737654859192
A -2.7286464110942279 5.8726379224661827 -6.5748347479187315
A -4.7687486885762134 6.9178725652529449 -4.9975178918779175
A -2.8820764836067077 6.0659402842052055 -5.296792673433889
A -2.6414563690230812 4.6885920031888446 -6.7611948844826015
A 0.41474352668889142 6.3625593433956125 6.8287489326253725
A -0.79475862586867885 6.7283246089032964 -5.4913561311825383
A -0.27068224505349542 4.8302378099224272 -6.0690689266198214
A 0.66686150076998418 5.484057538547269 -6.6971414288431728
A 1.5335895698480175 6.6378989725749733 -6.7436688181818312
A 1.2596336474726484 6.0757162615060523 -5.9603435304300536
A 2.1958209717785242 5.5950678730972712 -6.5710642674677366
A 3.2091290434316853 6.0572377049430637 6.1854033207639691
A 3.1765108419276649 6.8913539823847865 -6.5874262864451847
A 2.3434565661550475 6.5964479032293797 -5.9571520079216604
A 3.3666517955667103 6.2745142939719489 -5.7999259407691879
A 3.7604351024422926 5.4712018532632856 -6.3099021907452029
A 5.6595699619020117 6.2193190690511937 -5.9123153981014562
A 3.4278646404261064 6.5559898160750185 -4.6253371343026384
A 4.8785712816039153 6.3306199260673868 -5.158455870827253
A 6.7180023288829531 4.8315243547722915 -6.9105998963691544
A -6.3236893744697165 -6.046163170152397 -6.0759819812378062
A 6.9430267254668419 6.2702047756165813 -5.6036016474412964
A -6.4738191504261469 5.5371588099436257 -6.7145432750484293
A -4.7483048973091986 -5.8321296722940614 -4.8197627285693967
A -5.6053091340214554 -5.2426408854787132 -4.2366104699792224
A -5.5727862442697012 -4.6137073508821329 -3.3639660503304878
A -5.825764579429336 -6.1147298587795396 -4.7835975116739826
A -3.7453980458424705 -6.2854136771905207 -4.5746024026421086
A -2.7748723971278895 -5.0101388288330568 -4.8691697565310008
A -4.3551053965306608 -6.1616744353385666 -3.1614419377557019
A -3.1767823675654094 -6.8013357343225778 -3.6363142194070246
A -2.6433015261982078 -6.1932742165140011 -4.2801145671450387
A -0.16433498169307903 -4.9586241153694601 -4.8789684364170931
A -1.5317551922757671 -4.8630596968592554 -3.2518706709185263
A -1.5772485601424597 -6.5784831888735935 -4.4460894045185535
A 0.56943674754491125 -6.6082460439617963 -4.3678413195866019
A 1.408965125035321 -4.7596351450610808 -4.6603963546708815
A 0.37734122543828474 -5.592239027658187 -2.9591632230820788
A 1.6574012029379865 -5.8277805756082355 -4.6060564183179258
A 2.2760104884292578 6.361899151281623 -3.7624558937894683
A 4.0607304370500099 -6.743586857251576 -5.1101089422960886
A 1.926068268656933 6.9690383619106369 -2.8804381708854065
A 3.4192823865498578 -5.8031637791730724 -3.4385554017773092
A 4.7101848375309538 6.8488407323811353 -4.2195360787237739
A 4.9687712976656728 -5.1247831370834831 -4.7798884418761318
A 3.4915276750425916 -6.577268424800371 -4.0948129126658985
A 5.2312831340133563 -6.5457826501911391 -3.3597348407165355
A 5.9360389486134668 -6.7856389294118937 -4.1421902805724145
A -6.61394170841701 -4.8508251444092005 -6.2833669716784275
A 6.4759213122830817 -5.9724909333082392 -3.7174919647988682
A -6.6034282922019694 -6.5790123846789026 -3.9163902081094131
A -5.606530475147399 -4.0815633742190212 -4.3301206354535413
A -4.7124048014256941 -2.9165773203807301 -4.4226625847513406
A -6.599891108358352 -3.5483565167910385 -3.5583949002910429
A -4.6771947517988748 -5.2186166169773527 -3.8486423882197025
A -3.6550794376701736 -4.3283633919080913 -3.9917160818025348
A -3.6746357465190997 -3.3098883162173829 -3.9748073689698158
A -3.2585888174599948 -3.810884678397445 -3.2152187683457316
A -2.1459721976880441 -4.1887242552418424 -2.8044291476557728
A -2.1518068268800112 -4.1764157550714378 -4.9705549578547448
A -0.34373939618669813 -3.9036137948463629 -3.8256833214378787
A -1.4509654339853333 -3.2998078945726008 -4.5325311439557128
A -0.53633403248706268 -4.9149513477570199 -3.7692740117470618
A 0.49976725562506202 -5.0941387533554972 -6.162335034717052
A 1.341699258190217 -3.8289168872918187 -3.7685499246930911
A 0.46207012327072416 -3.0468860050931199 -3.9479737051034531
A 2.1608510575867723 -6.2373549334787937 -3.793897754817579
A 2.9758888388080891 -5.9539624545255361 -4.6963307574839641
A 3.1182370981639935 -4.3438242491034966 -4.6879757755398908
A 2.1724737527648879 -3.8944421638127094 -2.8737886271713484
A 2.8848769259781317 -4.5914411625195051 -2.6054142362977752
A 4.6496796504182001 -5.2484221443568178 -3.6603917506619257
A 4.807223948175853 -3.4313341627930005 -5.2540377978150152
A 3.2739371928943006 -4.5028262302457103 -3.5543372190330684
A 6.4494744639127841 -4.775102270477646 -3.6790495154717076
A 6.3700362048335304 -4.9437307278568516 -4.7953821908029175
A 6.7726143312445801 -3.8583511664266363 -5.4840854947623212
A 5.6964209993007255 -3.7664876390261179 -2.4777275427757224
A 6.6781842092184256 -3.906257882602854 -4.2609376371145133
A -5.4191686180101408 -1.9493102388548187 -4.6030906947712928
A -4.8501276087131933 -1.4911759492342231 -3.715140807410422
A -6.0176805944409617 -1.4744107338926911 -3.6501136584598242
A -5.5044991352010628 -3.4942735502233453 -3.0986107449802498
A -4.2126730182504852 -1.9214128844068787 -5.3538177902873718
A -2.874025985504538 -1.9958457040626842 -3.7640944859913597
A -4.8244603914806454 -2.5670998893697234 -3.4857460878692956
A -2.6580667236875128 -3.3528244131904827 -4.1536686739230984
A -1.6372781930253231 -2.6941517673276048 -3.6011744070426221
A -0.50415802374702956 -1.3633608059811699 -4.6049576526576512
A -2.0190621314751684 -1.7018418386116203 -2.40584730037751
A -0.5993611160958765 -2.8478077847628471 -3.686642884811139
A 0.53094904336923499 -3.035438570422393 -5.5046879157368362
A 1.5908365080369347 -2.0248586932267543 -6.1169610038351196
A 0.22322625605911448 -1.003959099606466 -3.9143933657409313
A 1.9289562025715081 -2.9708131702522418 -3.6320387134020655
A 2.168166211954385 -1.9724888538923562 -3.9031676022192645
A 3.8545823728279669 -0.77647742636790928 -4.5191960450786333
A 1.9877156055781711 -0.97476687089155234 -3.4383246907374234
A 3.045640198008317 -2.6145211099245329 -4.2616184553980379
A 4.7771910589910282 -3.209354648648397 -4.235718011749908
A 4.8607707377977176 -1.4139939850497232 -5.4277825197373
A 3.9959825395597242 -0.94767160863724353 -3.5372218992971241
A 5.2712797753937473 -4.1871919445278767 -4.1687023921583943
A 6.7696235713046811 -2.9762372466587763 -4.8534642742466279
A -6.6003819382863798 -2.0263343006701011 -4.8914382654527992
A 5.7034039918113342 -2.1669574122058015 -3.9501127356894132
A 6.8038559173734372 -2.6905661164299692 -3.82985197235945
A -6.0019892272909194 -1.0854883647388798 -6.45629683722699
A -4.8794420078257925 -0.8588066770366608 -4.7647624849022323
A -5.3425193032396781 -0.0014308051603064431 -3.5915908160723617
A -4.4164771347571889 -0.60074630481572366 -3.4067256189832804
A -3.1959675010984614 -0.29132169980545186 -4.8096746168226385
A -3.3987274753631027 -1.2488414734398594 -4.3544381250311597
A -3.5949035267718621 0.66372517920329899 -2.7450343665212502
A -2.4398158582316749 -0.6265783918488762 -3.9486811152376311
A -0.65008927060797883 -0.20193023668521567 -4.985401443159688
A -1.4419149247800931 0.68023839179329493 -5.1294243372503878
A -1.7483193584987695 -0.3833284562618825 -3.2550129857640147
A 1.0970770771857152 -0.27888433563681847 -3.9470055259654973
A 0.38282361553182603 -0.16928131287497108 -4.7984652113457678
A 1.3691230140464559 0.61247061839772143 -4.5604887332376718
A 1.0737155179153783 0.81321366400978023 -3.4625172569570704
A 2.0752343826310189 0.084721862211663265 -3.561133859225952
A 2.3362041996765659 -0.61899259568479204 -4.3891829484540974
A 2.9448969345752465 0.92062338254311782 -3.9133258093645384
A 2.5269996813379625 0.96085153797654199 -2.8744472942727453
A 2.7197534320061467 -1.1383971105844248 -2.7721718593756441
A 4.1699851789502578 0.073558323228855457 -3.7116991124497143
A 5.5753402443220068 0.63494442847569388 -4.9838504087056048
A 6.5515649919368606 0.029466128336473111 -3.4266889658099635
A 5.4035263109180374 -1.306963073959597 -4.4907585047823995
A 6.0164432837102 -0.43455674015529827 -4.4959747769268565
A -5.5635391847154967 -0.28237742588681608 -5.7225285659431728
A 6.8055897856351271 0.1825550229102787 -4.5162845216822802
A -6.8207410218761195 -0.68020753493315222 -3.7992588777448746
A -5.3122246086646676 1.1910263346566121 -4.3101793227102494
A -5.0282683854125221 2.0049014455915546 -3.7248949305284462
A -5.6645326420973463 2.6959306757769066 -3.364685355691615
A -3.9511583991816361 1.4409125108310106 -3.8289499216219154
A -3.7495844099981945 0.7429580879379708 -4.6740372695863046
A -2.8448322512742967 3.1305506518525625 -4.5014953135516143
A -3.64314987097486 3.3594070807225327 -3.0344181606280669
A -2.9390933114050037 1.7499862489141578 -4.3000596877177184
A -1.938836400470547 1.3006312402012152 -4.4902330873446505
A 0.011432200770285382 2.1975836096952741 -4.4781257428384924
A -2.1249253006093816 2.3988247495578725 -4.1551576729730222
A -1.0241699890521769 1.4776116398256516 -3.7784203582140772
A 0.050196337728976491 1.5267622842706798 -3.7325063112662464
A 1.8730530846792095 2.7035647910488061 -3.9163147357964152
A 0.72822455618588611 2.7451034858054473 -4.0271416538854163
A 1.0080640240777976 1.7611088768787035 -3.985952109644558
A 2.747194140898618 1.9839346668092774 -4.0079430055446661
A 3.7613207258173342 2.6824554737920296 -4.8496931194108459
A 2.5793016190588456 2.9588169344851405 -3.2378707799988757
A 3.3792000219627627 1.5512625145399985 -3.1734459218951803
A 3.6509561028381028 1.7746419890449781 -4.39145496215985
A 4.7715703331950614 2.4843726362250309 -4.3818423519483938
A 4.4437789603014632 1.9409749110218664 -2.9334975113792545
A 5.2776085817940794 0.62767440772293381 -3.8178242018732251
A 6.4716258709806205 1.4614378667437564 -5.211431883463292
A -6.7300305253322854 3.0769225127867776 -4.0846026582095964
A 6.5093046347343657 1.9856560542316095 -2.4916127676135207
A -6.4366150900540875 1.8195682426763604 -3.3292345127079783
A -4.8686640735613196 2.4197316160924034 -4.6676655933035143
A -4.9457070677785691 4.5116599664269579 -4.128368629553532
A -4.9449163710850472 3.3041971134809893 -3.9451093377915964
A -4.2039066200618622 2.5808210929299382 -3.6526026243684591
A -3.1183461960071401 4.01497917741706 -4.9008717358890914
A -3.8845007551435429 4.9143171838855251 -4.9967439455291025
A -3.5449745984965269 4.4674005862357262 -3.9467383797295197
A -2.1912409849898693 3.2306099978870075 -3.2679041198313197
A -1.1876183175477564 3.7254352102092283 -5.5757338618713943
A -1.7814736893870526 3.3962442055013691 -4.1878498274711458
A -0.8132542098040878 4.9197635727381135 -3.0322589266805666
A -0.84662516050896064 3.9761383409362203 -3.5411647555063359
A -0.31731905837913155 3.437527781269079 -4.3699865056532472
A 1.3795960198415735 4.5975965699064956 -4.637224501719361
A 1.1759584651031536 4.5251084837740825 -3.1870477860846691
A 1.1459802247452449 4.0436277289734166 -2.2237164620865655
A 2.6026899107526682 2.9817078464616547 -4.9520819125924804
A 2.5627238569554835 4.5136884813268354 -4.7971157640433093
A 1.6815557576786317 3.6455799262832982 -3.5671562310632168
A 3.5260128840463474 3.7363489243898105 -3.1079812788688743
A 6.0350103632657586 4.5833568265470337 -4.6823814992597859
A -5.4394353034633927 3.820283985754696 -4.6926261276140462
A 4.301099427733365 3.8193876014809107 -3.9644709740636039
A 5.4146803548923534 1.8199953612058852 -3.3791035384087142
A 5.6768086256860562 1.6791905475138598 -4.4888408545119072
A -6.8991805787154634 5.4094674096723416 -4.5090510510082407
A -6.7646634765966285 3.8085699134513322 -3.0540600873382466
A 6.6373291915493455 1.5100189821314389 -3.939958966049804
A -5.8262003109951879 3.8743075508264799 -3.6109188473914116
A -4.1565872677962945 6.487259802040124 -3.789191912869541
A -6.0764514590969938 6.7670694005970606 -3.1333070382654005
A -5.7279941359094249 6.4076999041867317 -4.0790041481582087
A -2.3470694094358109 5.9429105882923405 -4.1748170959022781
A -3.0995021589895178 6.9228907880143185 -4.7125815263075577
A -3.109368383759056 6.1995011404521847 -2.6943985222854479
A -2.5334506226195823 5.2019247956391501 -3.3725407322485017
A -0.51934825213803004 5.4767617876810615 -5.0498322667892257
A -0.17734868650977531 -6.4591601932661389 -5.2233475645873408
A -1.3336570998566539 6.1724524411893498 -3.79468149405084
A -0.62158389133357428 6.1079497337237578 -3.0853068599000166
A 0.49371081360599811 6.5281130120396673 -4.924979257331243
A 1.4175761902769903 6.1703221854730144 -4.7884172768392936
A -0.55749801456709258 -6.9399164098130122 -4.4095043839320098
A -0.28871158826083126 5.4890409077978974 -3.9919631419754573
A 2.1728263939129842 5.4671537214052801 -4.2655703434526808
A 3.1768446818050795 5.4698409988749734 -4.3935551824396493
A 2.4515526765100932 5.5900059609963657 -3.005377032107702
A 4.2856775184804166 4.8868530213209587 -3.6326367848990802
A 3.8937026189529647 5.3071147581932312 -5.2878165012292131
A 4.2334483062220949 5.8605280425482151 -4.3415012552965297
A 3.6755591928329134 6.1432772437701075 -3.3902610413989671
A 5.1503423815738207 4.768045810392179 -2.3598570941556249
A 4.6667903391956589 4.5315388717835887 -4.5715870095031645
A -6.480492895124665 -6.835333581141791 -5.4011344134502499
A 5.6617708013104533 6.4675953120894043 -3.3014952050083313
A 6.3085235029790976 5.6408566286643635 -3.7925750325012428
A -5.3862836040839026 -6.1805551918347934 -3.8547447986757066
A -5.0821662966975634 -5.4455449768454836 -2.5136714366906547
A -6.1432556501534341 -5.2533858714320356 -2.2515302241993957
A -5.0496107171944073 -6.9655068231909452 -2.6460195891491707
A -2.9211322068214165 -6.0530921042388961 -2.8710251956271273
A -3.0277737889654852 -4.8584450522733587 -2.7368171776391206
A -4.4142520526692888 -6.3079524109513647 -2.110057137145426
A -3.5544664363771283 -6.1864081857968083 -1.308493299173241
A -1.6196204479164538 -6.254984712957425 -2.4670120629374419
A -0.81001272897062582 -5.8975001567236873 -3.2095515056787121
A -1.6523192309167218 -5.4294108929713012 -1.2385717418387892
A -2.4917876066423901 -6.0128412691831494 -1.8285611855235673
A -0.4471085212494561 -6.5664247911665781 -2.4352623882362026
A 1.1262048228635615 -5.54684581904288 -1.9659996368647163
A 0.025013250746743539 -5.5001109279493461 -1.8991694624939284
A 1.5087459903189167 -6.9602379796410077 -1.9114223042425078
A 2.7167531744498961 -6.8300398262476278 -1.8055736632220953
A 4.0028875837979143 -4.9069785270609385 -2.6414054182276878
A 2.127811663609152 -5.9015561339708675 -0.85068829988063677
A 3.1159754502061654 -5.9702476151010595 -1.1002130703018893
A 5.0623043457192249 -6.6184201085148961 -2.1703024351757656
A 4.7508693876216892 -5.7078847660138265 -2.6731674154022067
A 4.3313749591869843 -5.5812983714770921 -1.6057871649267774
A 5.1005090873843288 -6.1784245772225193 -1.2655974468229134
A 5.9772105846024983 -6.5144118379505178 -2.6473570652381642
A 6.8825012419538627 -5.4251580513705679 -2.9171568330169713
A 6.9880405150008693 -5.5936911963372484 -1.8035991153160245
A 6.5938226871563446 -6.9494569140414901 -1.9206220646065484
A -5.0602879006128205 -4.4227624356185302 -2.4077577373026604
A -4.1131199575888404 -4.5168054840779108 -1.8790550326420357
A -5.2682253497750882 -3.4360917316976205 -1.6975792514504933
A -5.3731665267230735 -4.5324295696512245 -1.3089062854209523
A -4.1223706843861558 -5.1068502864865772 -2.8696136492089508
A -1.5361328223599333 -4.1673814876052875 -1.9542822193099318
A -4.303370101082086 -4.5511532886065558 -0.80520073422362426
A -2.6059778055962077 -5.5091921533186259 -0.86659129990374872
A -2.0280503372764329 -5.2485124309854863 -2.3561276175428865
A -0.31222252787053095 -2.9454433218728662 -2.090722031905754
A -2.2696205046438807 -4.3089052546609574 -0.79301418267384971
A -0.76790386224444673 -4.8231049318165855 -1.35310261371694
A 1.1825440808067671 -5.9490405523720522 -3.6993474480872792
A 0.6204150141442587 -3.4209025922163523 -1.9008751388344238
A -0.35371271341593724 -3.9834351958263534 -1.8431530212822913
A 1.3641594157677126 -4.917901373421957 -1.1352477141019488
A 1.7118353615289394 -4.9278891910194291 -2.665987297224508
A 3.6510763893482863 -3.9189095353209749 -2.7195064394867847
A 2.1701490248363853 -5.38890710037865 -1.8796007382348356
A 3.1995812444920775 -5.4539580670545877 -2.033751012373056
A 4.9906386218311969 -4.5863842200193279 -2.7691140766605145
A 5.8354773507054505 -2.7616232675403118 -1.9968458807767653
A 4.5749218547172372 -3.6370761414326873 -2.2107156156859227
A 4.6335377522169949 -4.0951357012497578 -0.85778471945187573
A 6.1500497724955592 -4.8623514118301232 -2.3577582375975559
A -6.2605580436521597 -3.625986375050172 -2.4080880544765257
A 6.7414232614226455 -3.5844195319176224 -2.0398602898859646
A -6.8094429489945876 -4.4191633559918495 -1.7062809472403038
A -5.6316001931569577 -2.1805734340191409 -1.8051143524053987
A -4.5356742848632772 -2.3202687179785668 -2.3738092098212191
A -4.4588054624995577 -1.5887361586039164 -1.5833153258043144
A -4.721395306249315 -2.6276646738812723 -1.2916599317148469
A -3.3312750048690711 -3.279359106852576 -2.2346969963864827
A -2.5628266809521429 -2.4427261089329382 -1.7824018977362672
A -3.0847704606727842 -1.8622164441145195 -2.4690803788760358
A -2.3297015178058591 -3.4681398857162771 -1.4754211976914231
A -1.0734444070997438 -2.3174192761768544 -2.7583914844374431
A -1.1918089978569018 -1.0246806773973729 -2.2498718580688437
A -2.5771437102464847 -1.3545027035642816 -1.5551309444892634
A -0.90732657534203409 -2.0502909145965016 -1.7612988680347634
A 0.1444598366501563 -3.5021230797446674 -2.8411036384194923
A 0.89705811016283321 -1.2513241165400191 -1.7193062766088971
A 0.0475917764747497 -2.1192473968842394 -1.0996183327051074
A 1.6470782375400066 -3.3623700812429247 -1.406365104410946
A 3.9253526052706427 -2.9582541233552417 -3.4369943911757819
A 2.0809057565454854 -2.2366708297143032 -1.5809151647317694
A 2.7143810634441703 -1.7152182480861526 -0.7595308165220277
A 2.7956060519124453 -3.4309195628910869 -1.8523093473617596
A 4.5185624878681336 -2.454173059285655 -1.3591827112122914
A 5.786827996674746 -1.9888346896784983 -2.9137491439097301
A 3.8605360085271379 -1.7480028919785804 -2.630131444398065
A 5.0962629842370193 -2.517604906620373 0.48224295709609333
A -6.2844680842606042 -2.7095163719767976 -2.9195686142526593
A -6.5306533733068459 -1.6831481602744067 -2.8167839010738374
A 6.2843508030016402 -1.600078113204878 -2.0488877726227313
A -6.6191103672268712 -1.7056681396943314 -1.6982267090473158
A -5.0973131793644262 -1.0775049392243443 -2.5814848017990695
A -4.3853412129416851 0.74594799642499987 -1.8378787768762188
A -5.6619584918031514 0.37515812660005943 0.10506569025126856
A -5.0798284805389171 -0.24715283731398008 -1.4535360264843511
A -4.1366425413743801 -1.506786821424656 -2.9153073761453157
A -2.4820818570612859 1.3388757307861516 -2.3639209086995732
A -2.558549128798052 1.6201421727140941 -1.2466218879619813
A -3.0216462362739129 0.021777854317938088 -1.8937929862773024
A -2.5532146510933149 0.32653508878405235 -2.8248596942249131
A -0.64446952573087279 -0.31690904046801549 -2.9034833177755908
A -0.91513827416115989 -0.25967191731255124 -1.5375015283216182
A -0.049941951962429829 -0.17015512551924666 -2.1097343702326175